ITEM: TIMESTEP
365
ITEM: NUMBER OF ATOMS
114
ITEM: BOX BOUNDS xy xz yz pp pp pp
0.0000000000000000e+00 2.1445782802569973e+01 7.1485942676652972e+00
0.0000000000000000e+00 1.2381728473987472e+01 0.0000000000000000e+00
0.0000000000000000e+00 3.5000000000000000e+01 0.0000000000000000e+00
ITEM: ATOMS id type x y z
1 1 6.7611 9.12295 5.87262
2 2 10.5364 8.67742 4.24205
3 3 10.5198 8.68399 7.53084
4 1 9.77621 10.4178 5.87292
5 2 13.5445 9.98698 4.25118
6 3 13.5397 9.98979 7.54199
7 1 12.7925 11.7247 5.8899
8 2 16.5439 11.3 4.24205
9 3 16.5578 11.311 7.53084
10 1 3.39274 4.55627 5.8893
11 2 7.14859 4.12724 4.25059
12 3 7.14859 4.12724 7.54236
13 1 6.3911 5.86325 5.89307
14 2 10.1591 5.43193 4.24777
15 3 10.161 5.43365 7.53859
16 1 9.39807 7.16539 5.8893
17 2 13.1731 6.73639 4.25118
18 3 13.1731 6.73085 7.54199
19 1 12.4133 8.46778 5.89568
20 2 16.1739 8.04008 4.25118
21 3 16.1787 8.04282 7.54199
22 1 15.4239 9.77937 5.89568
23 2 19.1759 9.33921 4.23318
24 3 19.1788 9.35657 7.51977
25 1 18.4312 11.0881 5.87292
26 2 7.8984 10.6351 4.22023
27 3 7.88789 10.6446 7.50364
28 1 -2.02943e-11 6.74003e-12 5.85707
29 2 10.9184 11.9372 4.23318
30 3 10.902 11.931 7.51977
31 1 3.01593 1.29381 5.87262
32 2 6.77325 0.867744 4.24777
33 3 6.77376 0.865202 7.53859
34 1 6.02391 2.60323 5.89307
35 2 9.77817 2.18125 4.24099
36 3 9.79527 2.18305 7.53002
37 1 9.03077 3.91525 5.89307
38 2 12.7972 3.48703 4.23318
39 3 12.8108 3.47589 7.51977
40 1 12.0442 5.21632 5.8899
41 2 15.8113 4.78605 4.24205
42 3 15.8139 4.76842 7.53084
43 1 15.0544 6.5163 5.89568
44 2 4.51346 6.08205 4.24777
45 3 4.511 6.08288 7.53859
46 1 18.0548 7.82245 5.8899
47 2 7.51909 7.37752 4.24099
48 3 7.50897 7.39143 7.53002
49 1 8.65497 0.660068 5.8893
50 2 12.4096 0.22399 4.22023
51 3 12.4232 0.228311 7.50364
52 1 11.6688 1.96497 5.87262
53 2 1.13776 1.52268 4.22023
54 3 1.13474 1.50881 7.50364
55 1 14.6842 3.25754 5.87292
56 2 4.14852 2.82296 4.24099
57 3 4.14154 2.80725 7.53002
58 4 4.89563 7.16541 12.5892
59 5 8.66532 7.6133 10.9482
60 6 8.66274 7.59568 14.237
61 4 7.53559 9.12419 12.6061
62 5 11.2901 9.57448 10.949
63 6 11.2971 9.55877 14.2381
64 4 10.1645 11.0879 12.6064
65 5 13.9224 11.5165 10.9405
66 6 13.9218 11.514 14.2313
67 4 -7.53919e-11 2.00644e-12 12.622
68 5 3.75338 0.450725 10.9593
69 6 3.76984 0.444513 14.2459
70 4 2.62761 1.96392 12.6061
71 5 6.39113 2.39194 10.9371
72 6 6.39591 2.39474 14.2279
73 4 5.26466 3.91394 12.5834
74 5 9.03014 4.33891 10.9371
75 6 9.02533 4.34165 14.2279
76 4 7.90584 5.86543 12.5834
77 5 11.6596 6.29885 10.9405
78 6 11.6621 6.29968 14.2313
79 4 10.5413 7.82546 12.5898
80 5 14.2972 8.25449 10.9367
81 6 14.2972 8.25449 14.2285
82 4 13.1725 9.7785 12.586
83 5 16.9439 10.1987 10.949
84 6 16.9268 10.2005 14.2381
85 4 15.8036 11.7217 12.5898
86 5 19.5717 12.1534 10.9754
87 6 19.5582 12.1577 14.2588
88 4 5.64394 0.657036 12.5892
89 5 9.40925 1.07069 10.9482
90 6 9.39528 1.08174 14.237
91 4 8.27529 2.60235 12.5834
92 5 12.0302 3.02516 10.9593
93 6 12.0273 3.04252 14.2459
94 4 10.9062 4.55928 12.5892
95 5 14.6576 4.9903 10.949
96 6 14.6677 5.00421 14.2381
97 4 13.5397 6.51848 12.586
98 5 17.3096 6.94808 10.9405
99 6 17.3077 6.9498 14.2313
100 4 16.1794 8.46648 12.586
101 5 5.66224 8.90584 10.9593
102 6 5.64864 8.8947 14.2459
103 4 18.8173 10.4168 12.6064
104 5 8.28333 10.8729 10.9754
105 6 8.28636 10.859 14.2588
106 4 11.2826 1.29362 12.6061
107 5 15.0365 1.73712 10.9754
108 6 15.047 1.74667 14.2588
109 4 13.9097 3.25877 12.6064
110 5 3.37121 3.69774 10.9482
111 6 3.38777 3.70431 14.237
112 4 16.5467 5.21634 12.5898
113 5 6.02451 5.65088 10.9371
114 6 6.02455 5.64534 14.2279
