LAMMPS data file

114 atoms
6 atom types
0.0 14.297188534904675 xlo xhi
0.0 12.381728473987472 ylo yhi
0.0 35.0 zlo zhi
7.148594267665297 0.0 0.0 xy xz yz

Masses

1 183.84
2 78.971
3 78.971
4 183.84
5 78.971
6 78.971

Atoms

1 1 6.772352464059132 9.123378875569715 5.889523815
2 2 10.534770499515266 8.688932262451694 4.34440811
3 3 10.534770499515266 8.688932262451694 7.4346395199999975
4 1 9.782286892482535 10.42671871493682 5.889523815
5 2 13.544704927938668 9.992272101818797 4.34440811
6 3 13.544704927938668 9.992272101818797 7.4346395199999975
7 1 12.792221320905934 11.730058554303922 5.889523815
8 2 16.554639356362067 11.295611941185902 4.34440811
9 3 16.554639356362067 11.295611941185902 7.4346395199999975
10 1 3.386176232029566 4.561689437784858 5.889523815
11 2 7.1485942674857 4.127242824666836 4.34440811
12 3 7.1485942674857 4.127242824666836 7.4346395199999975
13 1 6.396110660452967 5.865029277151961 5.889523815
14 2 10.158528695909101 5.4305826640339365 4.34440811
15 3 10.158528695909101 5.4305826640339365 7.4346395199999975
16 1 9.406045088876368 7.168369116519063 5.889523815
17 2 13.168463124332503 6.733922503401043 4.34440811
18 3 13.168463124332503 6.733922503401043 7.4346395199999975
19 1 12.415979517299771 8.471708955886164 5.889523815
20 2 16.178397552755904 8.037262342768143 4.34440811
21 3 16.178397552755904 8.037262342768143 7.4346395199999975
22 1 15.425913945723174 9.775048795253268 5.889523815
23 2 19.188331981179306 9.340602182135244 4.34440811
24 3 19.188331981179306 9.340602182135244 7.4346395199999975
25 1 18.435848374146573 11.07838863462037 5.889523815
26 2 7.901077874698031 10.643942021502351 4.34440811
27 3 7.901077874698031 10.643942021502351 7.4346395199999975
28 1 0.0 0.0 5.889523815
29 2 10.911012303121431 11.94728186086945 4.34440811
30 3 10.911012303121431 11.94728186086945 7.4346395199999975
31 1 3.0099344284234015 1.303339839367103 5.889523815
32 2 6.772352463879535 0.8688932262490808 4.34440811
33 3 6.772352463879535 0.8688932262490808 7.4346395199999975
34 1 6.019868856846803 2.606679678734206 5.889523815
35 2 9.782286892302938 2.172233065616183 4.34440811
36 3 9.782286892302938 2.172233065616183 7.4346395199999975
37 1 9.029803285270203 3.910019518101309 5.889523815
38 2 12.792221320726338 3.4755729049832857 4.34440811
39 3 12.792221320726338 3.4755729049832857 7.4346395199999975
40 1 12.039737713693606 5.213359357468412 5.889523815
41 2 15.802155749149739 4.778912744350388 4.34440811
42 3 15.802155749149739 4.778912744350388 7.4346395199999975
43 1 15.049672142117007 6.516699196835512 5.889523815
44 2 4.514901642668467 6.082252583717489 4.34440811
45 3 4.514901642668467 6.082252583717489 7.4346395199999975
46 1 18.059606570540407 7.820039036202618 5.889523815
47 2 7.524836071091867 7.385592423084596 4.34440811
48 3 7.524836071091867 7.385592423084596 7.4346395199999975
49 1 8.653561481664036 0.6516699196835531 5.889523815
50 2 12.41597951712017 0.21722330656553093 4.34440811
51 3 12.41597951712017 0.21722330656553093 7.4346395199999975
52 1 11.66349591008744 1.9550097590506565 5.889523815
53 2 1.1287254106388995 1.520563145932632 4.34440811
54 3 1.1287254106388995 1.520563145932632 7.4346395199999975
55 1 14.673430338510842 3.258349598417758 5.889523815
56 2 4.138659839062301 2.823902985299735 4.34440811
57 3 4.138659839062301 2.823902985299735 7.4346395199999975
58 4 4.891143446242869 7.1683691165344685 12.589523815
59 5 8.653561481699715 7.602815729646329 11.04440811
60 6 8.653561481699715 7.602815729646329 14.134639519999997
61 4 7.524836071114013 9.123378875586663 12.589523815
62 5 11.28725410657086 9.557825488698523 11.04440811
63 6 11.28725410657086 9.557825488698523 14.134639519999997
64 4 10.158528695985156 11.078388634638857 12.589523815
65 5 13.920946731442005 11.512835247750717 11.04440811
66 6 13.920946731442005 11.512835247750717 14.134639519999997
67 4 0.0 0.0 12.589523815
68 5 3.7624180354568457 0.43444661311185945 11.04440811
69 6 3.7624180354568457 0.43444661311185945 14.134639519999997
70 4 2.633692624871143 1.9550097590521938 12.589523815
71 5 6.396110660327989 2.3894563721640543 11.04440811
72 6 6.396110660327989 2.3894563721640543 14.134639519999997
73 4 5.267385249742286 3.9100195181043875 12.589523815
74 5 9.029803285199133 4.3444661312162465 11.04440811
75 6 9.029803285199133 4.3444661312162465 14.134639519999997
76 4 7.90107787461343 5.865029277156579 12.589523815
77 5 11.663495910070276 6.29947589026844 11.04440811
78 6 11.663495910070276 6.29947589026844 14.134639519999997
79 4 10.534770499484573 7.820039036208775 12.589523815
80 5 14.297188534941418 8.254485649320632 11.04440811
81 6 14.297188534941418 8.254485649320632 14.134639519999997
82 4 13.168463124355716 9.775048795260966 12.589523815
83 5 16.93088115981256 10.209495408372826 11.04440811
84 6 16.93088115981256 10.209495408372826 14.134639519999997
85 4 15.80215574922686 11.730058554313159 12.589523815
86 5 19.564573784683702 12.164505167425016 11.04440811
87 6 19.564573784683702 12.164505167425016 14.134639519999997
88 4 5.6436270532417065 0.6516699196743054 12.589523815
89 5 9.40604508869855 1.0861165327861648 11.04440811
90 6 9.40604508869855 1.0861165327861648 14.134639519999997
91 4 8.277319678112848 2.6066796787264996 12.589523815
92 5 12.039737713569691 3.0411262918383577 11.04440811
93 6 12.039737713569691 3.0411262918383577 14.134639519999997
94 4 10.911012302983991 4.561689437778693 12.589523815
95 5 14.673430338440836 4.996136050890554 11.04440811
96 6 14.673430338440836 4.996136050890554 14.134639519999997
97 4 13.544704927855136 6.516699196830885 12.589523815
98 5 17.30712296331198 6.951145809942746 11.04440811
99 6 17.30712296331198 6.951145809942746 14.134639519999997
100 4 16.17839755272628 8.47170895588308 12.589523815
101 5 5.643627053329155 8.906155569024218 11.04440811
102 6 5.643627053329155 8.906155569024218 14.134639519999997
103 4 18.81209017759742 10.426718714935275 12.589523815
104 5 8.277319678200298 10.861165328076408 11.04440811
105 6 8.277319678200298 10.861165328076408 14.134639519999997
106 4 11.287254106483413 1.3033398393486109 12.589523815
107 5 15.049672141940254 1.7377864524604714 11.04440811
108 6 15.049672141940254 1.7377864524604714 14.134639519999997
109 4 13.920946731354551 3.2583495984008053 12.589523815
110 5 3.3861762319574282 3.6927962115419426 11.04440811
111 6 3.3861762319574282 3.6927962115419426 14.134639519999997
112 4 16.554639356225696 5.213359357452999 12.589523815
113 5 6.019868856828575 5.647805970594135 11.04440811
114 6 6.019868856828575 5.647805970594135 14.134639519999997
