LAMMPS data file

8142 atoms
8 atom types
0.0 82.39265933990215 xlo xhi
0.0 71.35413673480953 ylo yhi
0.0 100.0 zlo zhi
41.19633027600028 0.0 0.0 xy xz yz

Masses

1 10.81
2 14.007
3 78.971
4 183.84
5 78.971
6 78.971
7 10.81
8 14.007

Atoms

1 1 1 0.42 0.0 0.0 2.631802725
2 1 2 -0.42 2.49674726498021 1.4414977118215415 2.631802725
3 1 1 0.42 1.2483736447272813 2.1622465677215 2.631802725
4 1 2 -0.42 3.7451209097074916 3.6037442795430423 2.631802725
5 1 1 0.42 2.4967472894545626 4.324493135443 2.631802725
6 1 2 -0.42 4.993494554434772 5.765990847264543 2.631802725
7 1 1 0.42 3.745120934181844 6.486739703164503 2.631802725
8 1 2 -0.42 6.241868199162054 7.928237414986043 2.631802725
9 1 1 0.42 4.993494578909125 8.648986270886 2.631802725
10 1 2 -0.42 7.4902418438893354 10.090483982707548 2.631802725
11 1 1 0.42 6.2418682236364065 10.811232838607506 2.631802725
12 1 2 -0.42 8.738615488616617 12.252730550429044 2.631802725
13 1 1 0.42 7.490241868363688 12.973479406329005 2.631802725
14 1 2 -0.42 9.986989133343897 14.414977118150546 2.631802725
15 1 1 0.42 8.73861551309097 15.135725974050507 2.631802725
16 1 2 -0.42 11.235362778071178 16.57722368587205 2.631802725
17 1 1 0.42 9.98698915781825 17.297972541772 2.631802725
18 1 2 -0.42 12.483736422798462 18.739470253593552 2.631802725
19 1 1 0.42 11.23536280254553 19.460219109493508 2.631802725
20 1 2 -0.42 13.732110067525738 20.90171682131505 2.631802725
21 1 1 0.42 12.483736447272813 21.62246567721501 2.631802725
22 1 2 -0.42 14.980483712253022 23.063963389036548 2.631802725
23 1 1 0.42 13.732110092000097 23.784712244936504 2.631802725
24 1 2 -0.42 16.228857356980306 25.22620995675805 2.631802725
25 1 1 0.42 14.980483736727376 25.94695881265801 2.631802725
26 1 2 -0.42 17.477231001707587 27.38845652447955 2.631802725
27 1 1 0.42 16.228857381454656 28.10920538037951 2.631802725
28 1 2 -0.42 18.725604646434867 29.55070309220105 2.631802725
29 1 1 0.42 17.47723102618194 30.271451948101014 2.631802725
30 1 2 -0.42 19.973978291162148 31.712949659922558 2.631802725
31 1 1 0.42 18.72560467090922 32.43369851582251 2.631802725
32 1 2 -0.42 21.22235193588943 33.875196227644054 2.631802725
33 1 1 0.42 19.9739783156365 34.595945083544 2.631802725
34 1 2 -0.42 22.470725580616712 36.037442795365564 2.631802725
35 1 1 0.42 21.22235196036378 36.75819165126551 2.631802725
36 1 2 -0.42 23.71909922534399 38.19968936308705 2.631802725
37 1 1 0.42 22.47072560509106 38.920438218987016 2.631802725
38 1 2 -0.42 24.96747287007127 40.36193593080855 2.631802725
39 1 1 0.42 23.719099249818345 41.08268478670851 2.631802725
40 1 2 -0.42 26.215846514798557 42.52418249853006 2.631802725
41 1 1 0.42 24.967472894545626 43.24493135443002 2.631802725
42 1 2 -0.42 27.464220159525834 44.686429066251556 2.631802725
43 1 1 0.42 26.215846539272906 45.40717792215152 2.631802725
44 1 2 -0.42 28.712593804253114 46.84867563397305 2.631802725
45 1 1 0.42 27.464220184000194 47.56942448987301 2.631802725
46 1 2 -0.42 29.9609674489804 49.01092220169456 2.631802725
47 1 1 0.42 28.71259382872747 49.73167105759451 2.631802725
48 1 2 -0.42 31.209341093707682 51.17316876941605 2.631802725
49 1 1 0.42 29.96096747345475 51.89391762531602 2.631802725
50 1 2 -0.42 32.45771473843496 53.33541533713756 2.631802725
51 1 1 0.42 31.20934111818203 54.056164193037525 2.631802725
52 1 2 -0.42 33.70608838316224 55.497661904859065 2.631802725
53 1 1 0.42 32.45771476290931 56.21841076075902 2.631802725
54 1 2 -0.42 34.95446202788952 57.65990847258055 2.631802725
55 1 1 0.42 33.7060884076366 58.38065732848054 2.631802725
56 1 2 -0.42 36.20283567261681 59.82215504030207 2.631802725
57 1 1 0.42 34.95446205236388 60.54290389620203 2.631802725
58 1 2 -0.42 37.45120931734409 61.98440160802357 2.631802725
59 1 1 0.42 36.20283569709115 62.70515046392352 2.631802725
60 1 2 -0.42 38.69958296207136 64.14664817574507 2.631802725
61 1 1 0.42 37.45120934181844 64.86739703164503 2.631802725
62 1 2 -0.42 39.947956606798655 66.30889474346657 2.631802725
63 1 1 0.42 38.69958298654572 67.02964359936654 2.631802725
64 1 2 -0.42 41.19633025152593 68.47114131118808 2.631802725
65 1 1 0.42 39.947956631273 69.191890167088 2.631802725
66 1 2 -0.42 42.44470389625321 70.63338787890955 2.631802725
67 1 1 0.42 2.4967472527243078 1.956061494555614e-16 2.631802725
68 1 2 -0.42 4.993494517704517 1.4414977118215413 2.631802725
69 1 1 0.42 3.7451208974515886 2.1622465677215006 2.631802725
70 1 2 -0.42 6.241868162431798 3.6037442795430428 2.631802725
71 1 1 0.42 4.99349454217887 4.324493135443001 2.631802725
72 1 2 -0.42 7.490241807159078 5.765990847264543 2.631802725
73 1 1 0.42 6.241868186906151 6.4867397031645035 2.631802725
74 1 2 -0.42 8.73861545188636 7.928237414986044 2.631802725
75 1 1 0.42 7.490241831633433 8.648986270886004 2.631802725
76 1 2 -0.42 9.986989096613643 10.090483982707546 2.631802725
77 1 1 0.42 8.738615476360716 10.811232838607506 2.631802725
78 1 2 -0.42 11.235362741340925 12.252730550429044 2.631802725
79 1 1 0.42 9.986989121087996 12.973479406329005 2.631802725
80 1 2 -0.42 12.483736386068205 14.414977118150544 2.631802725
81 1 1 0.42 11.235362765815276 15.135725974050503 2.631802725
82 1 2 -0.42 13.732110030795486 16.57722368587205 2.631802725
83 1 1 0.42 12.48373641054256 17.29797254177201 2.631802725
84 1 2 -0.42 14.980483675522768 18.73947025359355 2.631802725
85 1 1 0.42 13.732110055269839 19.460219109493508 2.631802725
86 1 2 -0.42 16.228857320250047 20.90171682131505 2.631802725
87 1 1 0.42 14.980483699997121 21.62246567721501 2.631802725
88 1 2 -0.42 17.47723096497733 23.063963389036555 2.631802725
89 1 1 0.42 16.228857344724403 23.784712244936504 2.631802725
90 1 2 -0.42 18.72560460970461 25.226209956758044 2.631802725
91 1 1 0.42 17.477230989451684 25.94695881265801 2.631802725
92 1 2 -0.42 19.97397825443189 27.388456524479547 2.631802725
93 1 1 0.42 18.72560463417896 28.10920538037951 2.631802725
94 1 2 -0.42 21.22235189915917 29.550703092201054 2.631802725
95 1 1 0.42 19.973978278906245 30.27145194810101 2.631802725
96 1 2 -0.42 22.470725543886452 31.712949659922554 2.631802725
97 1 1 0.42 21.222351923633525 32.43369851582251 2.631802725
98 1 2 -0.42 23.719099188613736 33.875196227644054 2.631802725
99 1 1 0.42 22.470725568360805 34.59594508354401 2.631802725
100 1 2 -0.42 24.967472833341017 36.03744279536555 2.631802725
101 1 1 0.42 23.719099213088086 36.7581916512655 2.631802725
102 1 2 -0.42 26.215846478068297 38.19968936308705 2.631802725
103 1 1 0.42 24.96747285781537 38.920438218987016 2.631802725
104 1 2 -0.42 27.464220122795577 40.36193593080855 2.631802725
105 1 1 0.42 26.21584650254265 41.08268478670852 2.631802725
106 1 2 -0.42 28.71259376752286 42.52418249853007 2.631802725
107 1 1 0.42 27.464220147269934 43.24493135443002 2.631802725
108 1 2 -0.42 29.96096741225014 44.686429066251556 2.631802725
109 1 1 0.42 28.71259379199721 45.407177922151526 2.631802725
110 1 2 -0.42 31.209341056977426 46.84867563397306 2.631802725
111 1 1 0.42 29.960967436724495 47.56942448987302 2.631802725
112 1 2 -0.42 32.45771470170471 49.01092220169457 2.631802725
113 1 1 0.42 31.20934108145178 49.731671057594525 2.631802725
114 1 2 -0.42 33.706088346432 51.17316876941605 2.631802725
115 1 1 0.42 32.45771472617906 51.89391762531602 2.631802725
116 1 2 -0.42 34.95446199115927 53.335415337137555 2.631802725
117 1 1 0.42 33.70608837090634 54.056164193037525 2.631802725
118 1 2 -0.42 36.20283563588655 55.49766190485907 2.631802725
119 1 1 0.42 34.954462015633624 56.21841076075902 2.631802725
120 1 2 -0.42 37.45120928061383 57.65990847258055 2.631802725
121 1 1 0.42 36.202835660360904 58.38065732848053 2.631802725
122 1 2 -0.42 38.69958292534111 59.822155040302064 2.631802725
123 1 1 0.42 37.451209305088184 60.54290389620201 2.631802725
124 1 2 -0.42 39.94795657006839 61.98440160802356 2.631802725
125 1 1 0.42 38.699582949815465 62.70515046392352 2.631802725
126 1 2 -0.42 41.19633021479567 64.14664817574506 2.631802725
127 1 1 0.42 39.94795659454275 64.86739703164504 2.631802725
128 1 2 -0.42 42.44470385952295 66.3088947434666 2.631802725
129 1 1 0.42 41.19633023927003 67.02964359936654 2.631802725
130 1 2 -0.42 43.69307750425024 68.47114131118808 2.631802725
131 1 1 0.42 42.44470388399732 69.19189016708803 2.631802725
132 1 2 -0.42 44.94145114897752 70.63338787890957 2.631802725
133 1 1 0.42 4.9934945054486155 3.912122989111228e-16 2.631802725
134 1 2 -0.42 7.490241770428825 1.4414977118215417 2.631802725
135 1 1 0.42 6.241868150175897 2.162246567721501 2.631802725
136 1 2 -0.42 8.738615415156104 3.6037442795430414 2.631802725
137 1 1 0.42 7.490241794903177 4.324493135443001 2.631802725
138 1 2 -0.42 9.986989059883388 5.7659908472645425 2.631802725
139 1 1 0.42 8.73861543963046 6.486739703164503 2.631802725
140 1 2 -0.42 11.235362704610667 7.928237414986045 2.631802725
141 1 1 0.42 9.98698908435774 8.648986270886002 2.631802725
142 1 2 -0.42 12.483736349337946 10.090483982707543 2.631802725
143 1 1 0.42 11.235362729085022 10.8112328386075 2.631802725
144 1 2 -0.42 13.732109994065233 12.252730550429044 2.631802725
145 1 1 0.42 12.483736373812302 12.973479406329007 2.631802725
146 1 2 -0.42 14.980483638792512 14.414977118150547 2.631802725
147 1 1 0.42 13.732110018539586 15.135725974050507 2.631802725
148 1 2 -0.42 16.228857283519794 16.577223685872045 2.631802725
149 1 1 0.42 14.980483663266867 17.29797254177201 2.631802725
150 1 2 -0.42 17.477230928247078 18.739470253593552 2.631802725
151 1 1 0.42 16.228857307994147 19.460219109493508 2.631802725
152 1 2 -0.42 18.725604572974355 20.901716821315052 2.631802725
153 1 1 0.42 17.47723095272143 21.62246567721501 2.631802725
154 1 2 -0.42 19.973978217701642 23.063963389036548 2.631802725
155 1 1 0.42 18.725604597448708 23.78471224493651 2.631802725
156 1 2 -0.42 21.22235186242892 25.226209956758055 2.631802725
157 1 1 0.42 19.973978242175992 25.94695881265801 2.631802725
158 1 2 -0.42 22.470725507156203 27.388456524479547 2.631802725
159 1 1 0.42 21.222351886903272 28.10920538037951 2.631802725
160 1 2 -0.42 23.719099151883484 29.550703092201054 2.631802725
161 1 1 0.42 22.470725531630553 30.271451948101006 2.631802725
162 1 2 -0.42 24.967472796610764 31.71294965992255 2.631802725
163 1 1 0.42 23.719099176357837 32.43369851582251 2.631802725
164 1 2 -0.42 26.215846441338044 33.87519622764405 2.631802725
165 1 1 0.42 24.96747282108512 34.59594508354402 2.631802725
166 1 2 -0.42 27.464220086065325 36.03744279536556 2.631802725
167 1 1 0.42 26.215846465812398 36.75819165126551 2.631802725
168 1 2 -0.42 28.712593730792605 38.19968936308705 2.631802725
169 1 1 0.42 27.464220110539678 38.920438218987016 2.631802725
170 1 2 -0.42 29.960967375519886 40.36193593080854 2.631802725
171 1 1 0.42 28.712593755266962 41.08268478670852 2.631802725
172 1 2 -0.42 31.209341020247173 42.524182498530074 2.631802725
173 1 1 0.42 29.960967399994242 43.24493135443002 2.631802725
174 1 2 -0.42 32.457714664974446 44.686429066251556 2.631802725
175 1 1 0.42 31.209341044721523 45.40717792215152 2.631802725
176 1 2 -0.42 33.70608830970173 46.84867563397305 2.631802725
177 1 1 0.42 32.45771468944881 47.56942448987301 2.631802725
178 1 2 -0.42 34.954461954429014 49.01092220169456 2.631802725
179 1 1 0.42 33.70608833417609 49.731671057594525 2.631802725
180 1 2 -0.42 36.202835599156295 51.17316876941606 2.631802725
181 1 1 0.42 34.95446197890337 51.89391762531602 2.631802725
182 1 2 -0.42 37.451209243883575 53.33541533713756 2.631802725
183 1 1 0.42 36.20283562363064 54.0561641930375 2.631802725
184 1 2 -0.42 38.699582888610855 55.49766190485906 2.631802725
185 1 1 0.42 37.45120926835792 56.21841076075902 2.631802725
186 1 2 -0.42 39.947956533338136 57.659908472580554 2.631802725
187 1 1 0.42 38.69958291308521 58.38065732848053 2.631802725
188 1 2 -0.42 41.19633017806542 59.822155040302064 2.631802725
189 1 1 0.42 39.94795655781249 60.54290389620202 2.631802725
190 1 2 -0.42 42.444703822792704 61.98440160802357 2.631802725
191 1 1 0.42 41.19633020253976 62.70515046392352 2.631802725
192 1 2 -0.42 43.69307746751998 64.14664817574506 2.631802725
193 1 1 0.42 42.44470384726705 64.86739703164503 2.631802725
194 1 2 -0.42 44.94145111224727 66.30889474346657 2.631802725
195 1 1 0.42 43.69307749199433 67.02964359936651 2.631802725
196 1 2 -0.42 46.189824756974545 68.47114131118806 2.631802725
197 1 1 0.42 44.94145113672161 69.19189016708802 2.631802725
198 1 2 -0.42 47.438198401701825 70.63338787890956 2.631802725
199 1 1 0.42 7.490241758172923 5.868184483666842e-16 2.631802725
200 1 2 -0.42 9.98698902315313 1.4414977118215417 2.631802725
201 1 1 0.42 8.738615402900205 2.1622465677215015 2.631802725
202 1 2 -0.42 11.235362667880413 3.6037442795430428 2.631802725
203 1 1 0.42 9.986989047627485 4.324493135443002 2.631802725
204 1 2 -0.42 12.483736312607697 5.7659908472645425 2.631802725
205 1 1 0.42 11.235362692354766 6.4867397031645035 2.631802725
206 1 2 -0.42 13.732109957334975 7.928237414986046 2.631802725
207 1 1 0.42 12.483736337082048 8.648986270886004 2.631802725
208 1 2 -0.42 14.980483602062257 10.090483982707546 2.631802725
209 1 1 0.42 13.73210998180933 10.811232838607506 2.631802725
210 1 2 -0.42 16.22885724678954 12.252730550429044 2.631802725
211 1 1 0.42 14.980483626536612 12.973479406329005 2.631802725
212 1 2 -0.42 17.47723089151682 14.414977118150546 2.631802725
213 1 1 0.42 16.22885727126389 15.135725974050503 2.631802725
214 1 2 -0.42 18.725604536244106 16.57722368587205 2.631802725
215 1 1 0.42 17.477230915991175 17.297972541772005 2.631802725
216 1 2 -0.42 19.973978180971386 18.73947025359355 2.631802725
217 1 1 0.42 18.725604560718452 19.460219109493508 2.631802725
218 1 2 -0.42 21.22235182569866 20.90171682131505 2.631802725
219 1 1 0.42 19.973978205445736 21.62246567721501 2.631802725
220 1 2 -0.42 22.470725470425947 23.063963389036555 2.631802725
221 1 1 0.42 21.22235185017302 23.78471224493651 2.631802725
222 1 2 -0.42 23.719099115153227 25.22620995675805 2.631802725
223 1 1 0.42 22.4707254949003 25.94695881265801 2.631802725
224 1 2 -0.42 24.967472759880508 27.388456524479547 2.631802725
225 1 1 0.42 23.719099139627577 28.10920538037951 2.631802725
226 1 2 -0.42 26.215846404607788 29.55070309220105 2.631802725
227 1 1 0.42 24.96747278435486 30.27145194810101 2.631802725
228 1 2 -0.42 27.46422004933507 31.712949659922558 2.631802725
229 1 1 0.42 26.21584642908214 32.43369851582251 2.631802725
230 1 2 -0.42 28.712593694062353 33.875196227644054 2.631802725
231 1 1 0.42 27.46422007380942 34.59594508354401 2.631802725
232 1 2 -0.42 29.960967338789633 36.03744279536555 2.631802725
233 1 1 0.42 28.712593718536706 36.75819165126551 2.631802725
234 1 2 -0.42 31.209340983516913 38.19968936308705 2.631802725
235 1 1 0.42 29.960967363263986 38.920438218987016 2.631802725
236 1 2 -0.42 32.45771462824419 40.36193593080855 2.631802725
237 1 1 0.42 31.209341007991267 41.08268478670851 2.631802725
238 1 2 -0.42 33.706088272971485 42.52418249853006 2.631802725
239 1 1 0.42 32.45771465271855 43.24493135443 2.631802725
240 1 2 -0.42 34.95446191769876 44.686429066251556 2.631802725
241 1 1 0.42 33.70608829744583 45.40717792215152 2.631802725
242 1 2 -0.42 36.20283556242604 46.84867563397305 2.631802725
243 1 1 0.42 34.95446194217312 47.56942448987302 2.631802725
244 1 2 -0.42 37.451209207153326 49.01092220169457 2.631802725
245 1 1 0.42 36.2028355869004 49.731671057594525 2.631802725
246 1 2 -0.42 38.699582851880606 51.17316876941605 2.631802725
247 1 1 0.42 37.45120923162767 51.89391762531603 2.631802725
248 1 2 -0.42 39.94795649660789 53.33541533713757 2.631802725
249 1 1 0.42 38.69958287635495 54.056164193037525 2.631802725
250 1 2 -0.42 41.19633014133516 55.497661904859065 2.631802725
251 1 1 0.42 39.94795652108223 56.21841076075902 2.631802725
252 1 2 -0.42 42.44470378606245 57.65990847258055 2.631802725
253 1 1 0.42 41.19633016580952 58.38065732848053 2.631802725
254 1 2 -0.42 43.69307743078973 59.82215504030206 2.631802725
255 1 1 0.42 42.4447038105368 60.54290389620203 2.631802725
256 1 2 -0.42 44.94145107551701 61.98440160802357 2.631802725
257 1 1 0.42 43.693077455264074 62.70515046392352 2.631802725
258 1 2 -0.42 46.18982472024429 64.14664817574506 2.631802725
259 1 1 0.42 44.94145109999136 64.86739703164503 2.631802725
260 1 2 -0.42 47.43819836497158 66.30889474346657 2.631802725
261 1 1 0.42 46.18982474471864 67.02964359936654 2.631802725
262 1 2 -0.42 48.68657200969885 68.47114131118808 2.631802725
263 1 1 0.42 47.43819838944592 69.19189016708802 2.631802725
264 1 2 -0.42 49.93494565442613 70.63338787890955 2.631802725
265 1 1 0.42 9.986989010897231 7.824245978222456e-16 2.631802725
266 1 2 -0.42 12.483736275877439 1.441497711821542 2.631802725
267 1 1 0.42 11.235362655624513 2.162246567721502 2.631802725
268 1 2 -0.42 13.73210992060472 3.603744279543043 2.631802725
269 1 1 0.42 12.483736300351794 4.324493135443002 2.631802725
270 1 2 -0.42 14.980483565332005 5.7659908472645425 2.631802725
271 1 1 0.42 13.732109945079074 6.4867397031645035 2.631802725
272 1 2 -0.42 16.228857210059285 7.928237414986045 2.631802725
273 1 1 0.42 14.980483589806354 8.648986270886002 2.631802725
274 1 2 -0.42 17.477230854786562 10.090483982707546 2.631802725
275 1 1 0.42 16.22885723453364 10.8112328386075 2.631802725
276 1 2 -0.42 18.725604499513846 12.252730550429046 2.631802725
277 1 1 0.42 17.47723087926092 12.973479406329005 2.631802725
278 1 2 -0.42 19.973978144241123 14.41497711815055 2.631802725
279 1 1 0.42 18.725604523988203 15.135725974050507 2.631802725
280 1 2 -0.42 21.22235178896841 16.57722368587205 2.631802725
281 1 1 0.42 19.97397816871548 17.297972541772005 2.631802725
282 1 2 -0.42 22.47072543369569 18.73947025359354 2.631802725
283 1 1 0.42 21.222351813442764 19.460219109493508 2.631802725
284 1 2 -0.42 23.71909907842297 20.90171682131505 2.631802725
285 1 1 0.42 22.470725458170044 21.622465677215 2.631802725
286 1 2 -0.42 24.96747272315025 23.06396338903656 2.631802725
287 1 1 0.42 23.719099102897324 23.78471224493651 2.631802725
288 1 2 -0.42 26.215846367877532 25.226209956758055 2.631802725
289 1 1 0.42 24.967472747624605 25.946958812658014 2.631802725
290 1 2 -0.42 27.464220012604816 27.388456524479555 2.631802725
291 1 1 0.42 26.215846392351885 28.10920538037951 2.631802725
292 1 2 -0.42 28.712593657332093 29.550703092201054 2.631802725
293 1 1 0.42 27.464220037079173 30.271451948101014 2.631802725
294 1 2 -0.42 29.960967302059377 31.712949659922554 2.631802725
295 1 1 0.42 28.712593681806453 32.43369851582252 2.631802725
296 1 2 -0.42 31.209340946786664 33.87519622764406 2.631802725
297 1 1 0.42 29.960967326533734 34.59594508354402 2.631802725
298 1 2 -0.42 32.45771459151394 36.03744279536556 2.631802725
299 1 1 0.42 31.209340971261014 36.75819165126551 2.631802725
300 1 2 -0.42 33.70608823624122 38.19968936308705 2.631802725
301 1 1 0.42 32.457714615988294 38.920438218987016 2.631802725
302 1 2 -0.42 34.9544618809685 40.36193593080855 2.631802725
303 1 1 0.42 33.706088260715575 41.08268478670852 2.631802725
304 1 2 -0.42 36.20283552569578 42.52418249853007 2.631802725
305 1 1 0.42 34.95446190544286 43.24493135443002 2.631802725
306 1 2 -0.42 37.45120917042307 44.686429066251556 2.631802725
307 1 1 0.42 36.20283555017014 45.40717792215152 2.631802725
308 1 2 -0.42 38.69958281515035 46.848675633973045 2.631802725
309 1 1 0.42 37.451209194897416 47.56942448987302 2.631802725
310 1 2 -0.42 39.94795645987763 49.01092220169458 2.631802725
311 1 1 0.42 38.6995828396247 49.731671057594525 2.631802725
312 1 2 -0.42 41.19633010460491 51.17316876941606 2.631802725
313 1 1 0.42 39.947956484351984 51.89391762531602 2.631802725
314 1 2 -0.42 42.44470374933219 53.33541533713756 2.631802725
315 1 1 0.42 41.196330129079264 54.0561641930375 2.631802725
316 1 2 -0.42 43.69307739405948 55.49766190485906 2.631802725
317 1 1 0.42 42.444703773806545 56.21841076075902 2.631802725
318 1 2 -0.42 44.94145103878675 57.659908472580554 2.631802725
319 1 1 0.42 43.69307741853383 58.38065732848053 2.631802725
320 1 2 -0.42 46.18982468351404 59.822155040302064 2.631802725
321 1 1 0.42 44.941451063261106 60.54290389620201 2.631802725
322 1 2 -0.42 47.43819832824131 61.98440160802356 2.631802725
323 1 1 0.42 46.189824707988386 62.70515046392352 2.631802725
324 1 2 -0.42 48.68657197296859 64.14664817574506 2.631802725
325 1 1 0.42 47.43819835271567 64.86739703164503 2.631802725
326 1 2 -0.42 49.93494561769589 66.30889474346657 2.631802725
327 1 1 0.42 48.686571997442954 67.02964359936654 2.631802725
328 1 2 -0.42 51.18331926242316 68.47114131118808 2.631802725
329 1 1 0.42 49.93494564217024 69.19189016708803 2.631802725
330 1 2 -0.42 52.43169290715044 70.63338787890957 2.631802725
331 1 1 0.42 12.48373626362154 9.78030747277807e-16 2.631802725
332 1 2 -0.42 14.980483528601747 1.4414977118215422 2.631802725
333 1 1 0.42 13.73210990834882 2.1622465677215015 2.631802725
334 1 2 -0.42 16.228857173329025 3.603744279543043 2.631802725
335 1 1 0.42 14.980483553076102 4.324493135443003 2.631802725
336 1 2 -0.42 17.477230818056313 5.765990847264544 2.631802725
337 1 1 0.42 16.228857197803382 6.4867397031645035 2.631802725
338 1 2 -0.42 18.72560446278359 7.928237414986044 2.631802725
339 1 1 0.42 17.477230842530666 8.648986270886006 2.631802725
340 1 2 -0.42 19.97397810751087 10.090483982707548 2.631802725
341 1 1 0.42 18.72560448725794 10.811232838607507 2.631802725
342 1 2 -0.42 21.22235175223815 12.252730550429046 2.631802725
343 1 1 0.42 19.973978131985227 12.973479406329007 2.631802725
344 1 2 -0.42 22.470725396965435 14.414977118150547 2.631802725
345 1 1 0.42 21.222351776712504 15.135725974050509 2.631802725
346 1 2 -0.42 23.719099041692715 16.57722368587205 2.631802725
347 1 1 0.42 22.47072542143979 17.29797254177201 2.631802725
348 1 2 -0.42 24.96747268642 18.739470253593552 2.631802725
349 1 1 0.42 23.719099066167068 19.460219109493508 2.631802725
350 1 2 -0.42 26.215846331147276 20.90171682131505 2.631802725
351 1 1 0.42 24.967472710894352 21.62246567721501 2.631802725
352 1 2 -0.42 27.464219975874563 23.063963389036548 2.631802725
353 1 1 0.42 26.215846355621636 23.784712244936504 2.631802725
354 1 2 -0.42 28.712593620601844 25.22620995675805 2.631802725
355 1 1 0.42 27.464220000348917 25.94695881265801 2.631802725
356 1 2 -0.42 29.96096726532912 27.38845652447955 2.631802725
357 1 1 0.42 28.712593645076197 28.109205380379503 2.631802725
358 1 2 -0.42 31.209340910056405 29.55070309220105 2.631802725
359 1 1 0.42 29.960967289803474 30.271451948101014 2.631802725
360 1 2 -0.42 32.457714554783685 31.712949659922558 2.631802725
361 1 1 0.42 31.209340934530754 32.43369851582251 2.631802725
362 1 2 -0.42 33.706088199510965 33.87519622764405 2.631802725
363 1 1 0.42 32.45771457925804 34.59594508354402 2.631802725
364 1 2 -0.42 34.954461844238246 36.037442795365564 2.631802725
365 1 1 0.42 33.70608822398532 36.75819165126551 2.631802725
366 1 2 -0.42 36.202835488965526 38.19968936308705 2.631802725
367 1 1 0.42 34.9544618687126 38.920438218987016 2.631802725
368 1 2 -0.42 37.45120913369281 40.36193593080855 2.631802725
369 1 1 0.42 36.20283551343988 41.08268478670851 2.631802725
370 1 2 -0.42 38.699582778420094 42.52418249853006 2.631802725
371 1 1 0.42 37.45120915816716 43.24493135443002 2.631802725
372 1 2 -0.42 39.94795642314737 44.686429066251556 2.631802725
373 1 1 0.42 38.69958280289444 45.40717792215152 2.631802725
374 1 2 -0.42 41.19633006787465 46.84867563397305 2.631802725
375 1 1 0.42 39.947956447621735 47.56942448987301 2.631802725
376 1 2 -0.42 42.444703712601935 49.01092220169456 2.631802725
377 1 1 0.42 41.19633009234901 49.73167105759451 2.631802725
378 1 2 -0.42 43.693077357329216 51.17316876941606 2.631802725
379 1 1 0.42 42.44470373707629 51.89391762531602 2.631802725
380 1 2 -0.42 44.941451002056496 53.33541533713756 2.631802725
381 1 1 0.42 43.693077381803576 54.0561641930375 2.631802725
382 1 2 -0.42 46.189824646783784 55.49766190485906 2.631802725
383 1 1 0.42 44.941451026530856 56.21841076075901 2.631802725
384 1 2 -0.42 47.438198291511064 57.65990847258055 2.631802725
385 1 1 0.42 46.18982467125814 58.38065732848054 2.631802725
386 1 2 -0.42 48.686571936238344 59.82215504030207 2.631802725
387 1 1 0.42 47.43819831598542 60.54290389620203 2.631802725
388 1 2 -0.42 49.93494558096563 61.98440160802357 2.631802725
389 1 1 0.42 48.6865719607127 62.70515046392352 2.631802725
390 1 2 -0.42 51.183319225692905 64.14664817574506 2.631802725
391 1 1 0.42 49.93494560543998 64.86739703164503 2.631802725
392 1 2 -0.42 52.43169287042019 66.30889474346657 2.631802725
393 1 1 0.42 51.18331925016726 67.02964359936651 2.631802725
394 1 2 -0.42 53.68006651514747 68.47114131118806 2.631802725
395 1 1 0.42 52.43169289489454 69.19189016708802 2.631802725
396 1 2 -0.42 54.928440159874754 70.63338787890956 2.631802725
397 1 1 0.42 14.980483516345846 1.1736368967333684e-15 2.631802725
398 1 2 -0.42 17.477230781326057 1.4414977118215426 2.631802725
399 1 1 0.42 16.22885716107313 2.162246567721502 2.631802725
400 1 2 -0.42 18.725604426053337 3.6037442795430423 2.631802725
401 1 1 0.42 17.47723080580041 4.324493135443003 2.631802725
402 1 2 -0.42 19.973978070780618 5.765990847264544 2.631802725
403 1 1 0.42 18.725604450527694 6.4867397031645035 2.631802725
404 1 2 -0.42 21.2223517155079 7.928237414986045 2.631802725
405 1 1 0.42 19.97397809525497 8.648986270886004 2.631802725
406 1 2 -0.42 22.47072536023518 10.090483982707546 2.631802725
407 1 1 0.42 21.22235173998225 10.811232838607507 2.631802725
408 1 2 -0.42 23.719099004962462 12.252730550429046 2.631802725
409 1 1 0.42 22.47072538470953 12.973479406329007 2.631802725
410 1 2 -0.42 24.967472649689743 14.414977118150546 2.631802725
411 1 1 0.42 23.719099029436816 15.135725974050505 2.631802725
412 1 2 -0.42 26.215846294417023 16.57722368587205 2.631802725
413 1 1 0.42 24.967472674164096 17.29797254177201 2.631802725
414 1 2 -0.42 27.464219939144304 18.73947025359355 2.631802725
415 1 1 0.42 26.21584631889138 19.460219109493508 2.631802725
416 1 2 -0.42 28.712593583871588 20.90171682131505 2.631802725
417 1 1 0.42 27.46421996361866 21.62246567721501 2.631802725
418 1 2 -0.42 29.960967228598868 23.063963389036555 2.631802725
419 1 1 0.42 28.71259360834594 23.784712244936504 2.631802725
420 1 2 -0.42 31.20934087332615 25.22620995675805 2.631802725
421 1 1 0.42 29.960967253073225 25.94695881265801 2.631802725
422 1 2 -0.42 32.457714518053436 27.388456524479547 2.631802725
423 1 1 0.42 31.2093408978005 28.10920538037951 2.631802725
424 1 2 -0.42 33.706088162780716 29.55070309220105 2.631802725
425 1 1 0.42 32.45771454252778 30.271451948101006 2.631802725
426 1 2 -0.42 34.954461807508 31.712949659922554 2.631802725
427 1 1 0.42 33.70608818725506 32.43369851582251 2.631802725
428 1 2 -0.42 36.20283545223528 33.875196227644054 2.631802725
429 1 1 0.42 34.95446183198235 34.59594508354401 2.631802725
430 1 2 -0.42 37.45120909696256 36.03744279536555 2.631802725
431 1 1 0.42 36.20283547670962 36.7581916512655 2.631802725
432 1 2 -0.42 38.69958274168984 38.19968936308705 2.631802725
433 1 1 0.42 37.451209121436904 38.920438218987016 2.631802725
434 1 2 -0.42 39.94795638641712 40.36193593080855 2.631802725
435 1 1 0.42 38.69958276616419 41.08268478670852 2.631802725
436 1 2 -0.42 41.1963300311444 42.52418249853007 2.631802725
437 1 1 0.42 39.94795641089147 43.24493135443002 2.631802725
438 1 2 -0.42 42.44470367587168 44.686429066251556 2.631802725
439 1 1 0.42 41.19633005561875 45.40717792215153 2.631802725
440 1 2 -0.42 43.69307732059896 46.84867563397306 2.631802725
441 1 1 0.42 42.44470370034604 47.56942448987302 2.631802725
442 1 2 -0.42 44.94145096532625 49.01092220169457 2.631802725
443 1 1 0.42 43.69307734507332 49.731671057594525 2.631802725
444 1 2 -0.42 46.18982461005353 51.17316876941605 2.631802725
445 1 1 0.42 44.9414509898006 51.89391762531602 2.631802725
446 1 2 -0.42 47.4381982547808 53.335415337137555 2.631802725
447 1 1 0.42 46.189824634527874 54.056164193037525 2.631802725
448 1 2 -0.42 48.68657189950808 55.49766190485907 2.631802725
449 1 1 0.42 47.438198279255154 56.21841076075902 2.631802725
450 1 2 -0.42 49.93494554423536 57.65990847258055 2.631802725
451 1 1 0.42 48.68657192398244 58.38065732848053 2.631802725
452 1 2 -0.42 51.183319188962656 59.822155040302064 2.631802725
453 1 1 0.42 49.93494556870972 60.54290389620202 2.631802725
454 1 2 -0.42 52.43169283368994 61.98440160802357 2.631802725
455 1 1 0.42 51.183319213436995 62.70515046392352 2.631802725
456 1 2 -0.42 53.6800664784172 64.14664817574506 2.631802725
457 1 1 0.42 52.43169285816428 64.86739703164503 2.631802725
458 1 2 -0.42 54.9284401231445 66.30889474346657 2.631802725
459 1 1 0.42 53.68006650289156 67.02964359936654 2.631802725
460 1 2 -0.42 56.17681376787178 68.47114131118808 2.631802725
461 1 1 0.42 54.92844014761884 69.19189016708802 2.631802725
462 1 2 -0.42 57.42518741259906 70.63338787890955 2.631802725
463 1 1 0.42 17.47723076907015 1.424743199663695e-15 2.631802725
464 1 2 -0.42 19.97397803405036 1.441497711821543 2.631802725
465 1 1 0.42 18.72560441379743 2.1622465677215024 2.631802725
466 1 2 -0.42 21.222351678777642 3.603744279543043 2.631802725
467 1 1 0.42 19.973978058524715 4.324493135443004 2.631802725
468 1 2 -0.42 22.470725323504926 5.765990847264545 2.631802725
469 1 1 0.42 21.222351703251995 6.486739703164504 2.631802725
470 1 2 -0.42 23.719098968232206 7.928237414986046 2.631802725
471 1 1 0.42 22.470725347979275 8.648986270886006 2.631802725
472 1 2 -0.42 24.967472612959487 10.090483982707548 2.631802725
473 1 1 0.42 23.719098992706556 10.811232838607507 2.631802725
474 1 2 -0.42 26.215846257686767 12.252730550429046 2.631802725
475 1 1 0.42 24.967472637433836 12.973479406329007 2.631802725
476 1 2 -0.42 27.46421990241405 14.414977118150547 2.631802725
477 1 1 0.42 26.21584628216112 15.135725974050509 2.631802725
478 1 2 -0.42 28.71259354714133 16.577223685872045 2.631802725
479 1 1 0.42 27.464219926888397 17.297972541772005 2.631802725
480 1 2 -0.42 29.960967191868612 18.739470253593545 2.631802725