ITEM: TIMESTEP
0
ITEM: NUMBER OF ATOMS
42
ITEM: BOX BOUNDS xy xz yz pp pp pp
0.0000000000000000e+00 1.2501174945004824e+01 4.1670583150871812e+00
0.0000000000000000e+00 7.2175567196295560e+00 0.0000000000000000e+00
0.0000000000000000e+00 3.5000000000000000e+01 0.0000000000000000e+00
ITEM: ATOMS id type x y z
1 1 3.57176 4.12432 5.88952
2 2 7.14353 3.43693 4.34441
3 3 7.14353 3.43693 7.43464
4 1 6.54823 5.1554 5.88952
5 2 10.12 4.46801 4.34441
6 3 10.12 4.46801 7.43464
7 1 9.5247 6.18648 5.88952
8 2 4.76235 5.49909 4.34441
9 3 4.76235 5.49909 7.43464
10 1 0 0 5.88952
11 2 7.73882 6.53017 4.34441
12 3 7.73882 6.53017 7.43464
13 1 2.97647 1.03108 5.88952
14 2 6.54823 0.343693 4.34441
15 3 6.54823 0.343693 7.43464
16 1 5.95294 2.06216 5.88952
17 2 1.19059 1.37477 4.34441
18 3 1.19059 1.37477 7.43464
19 1 8.92941 3.09324 5.88952
20 2 4.16706 2.40585 4.34441
21 3 4.16706 2.40585 7.43464
22 4 0 0 12.5895
23 5 3.57176 0.687386 11.0444
24 6 3.57176 0.687386 14.1346
25 4 2.38118 2.06216 12.5895
26 5 5.95294 2.74955 11.0444
27 6 5.95294 2.74955 14.1346
28 4 4.76235 4.12432 12.5895
29 5 8.33412 4.8117 11.0444
30 6 8.33412 4.8117 14.1346
31 4 7.14353 6.18648 12.5895
32 5 10.7153 6.87386 11.0444
33 6 10.7153 6.87386 14.1346
34 4 5.35765 1.03108 12.5895
35 5 8.92941 1.71847 11.0444
36 6 8.92941 1.71847 14.1346
37 4 7.73882 3.09324 12.5895
38 5 2.97647 3.78062 11.0444
39 6 2.97647 3.78062 14.1346
40 4 10.12 5.1554 12.5895
41 5 5.35765 5.84278 11.0444
42 6 5.35765 5.84278 14.1346
ITEM: TIMESTEP
348
ITEM: NUMBER OF ATOMS
42
ITEM: BOX BOUNDS xy xz yz pp pp pp
0.0000000000000000e+00 1.2501174945004824e+01 4.1670583150871812e+00
0.0000000000000000e+00 7.2175567196295560e+00 0.0000000000000000e+00
0.0000000000000000e+00 3.5000000000000000e+01 0.0000000000000000e+00
ITEM: ATOMS id type x y z
1 1 3.56614 4.12135 6.06236
2 2 7.14636 3.43853 4.50889
3 3 7.14764 3.43766 7.62255
4 1 6.54593 5.15353 6.06479
5 2 10.1172 4.46966 4.50889
6 3 10.1173 4.47121 7.62255
7 1 9.52424 6.18941 6.06479
8 2 4.76111 5.49523 4.50609
9 3 4.74954 5.49476 7.61205
10 1 8.33412 8.38986e-12 6.05724
11 2 7.7388 6.52692 4.50889
12 3 7.7374 6.52625 7.62255
13 1 2.98186 1.02769 6.06236
14 2 6.54551 0.346698 4.50609
15 3 6.55089 0.356956 7.61205
16 1 5.95318 2.06852 6.06236
17 2 1.19455 1.37563 4.50609
18 3 1.20075 1.36584 7.61205
19 1 8.93218 3.09218 6.06479
20 2 4.16706 2.40585 4.50712
21 3 4.16706 2.40585 7.62229
22 4 8.33412 8.81284e-13 12.4218
23 5 3.57034 0.691308 10.8565
24 6 3.57174 0.690636 13.9702
25 4 2.37887 2.06403 12.4143
26 5 5.95026 2.74635 10.8565
27 6 5.95014 2.7479 13.9702
28 4 4.76513 4.12538 12.4143
29 5 8.33412 4.8117 10.8568
30 6 8.33412 4.8117 13.9719
31 4 7.14891 6.18986 12.4167
32 5 10.7179 6.8606 10.867
33 6 10.7126 6.87086 13.973
34 4 5.35718 1.02815 12.4143
35 5 8.9166 1.7228 10.867
36 6 8.92817 1.72233 13.973
37 4 7.7332 3.09621 12.4167
38 5 2.98058 3.7799 10.8565
39 6 2.9793 3.77902 13.9702
40 4 10.1202 5.14904 12.4167
41 5 5.36781 5.85171 10.867
42 6 5.36161 5.84193 13.973
