LAMMPS data file

42 atoms
6 atom types
0.0 8.334116629917641 xlo xhi
0.0 7.217556719629556 ylo yhi
0.0 35.0 zlo zhi
4.167058315087181 0.0 0.0 xy xz yz

Masses

1 95.95
2 32.06
3 32.06
4 95.95
5 32.06
6 32.06

Atoms

1 1 3.571764270038051 4.124318125502603 5.889523815
2 2 7.143528539954811 3.436931771259042 4.34440811
3 3 7.143528539954811 3.436931771259042 7.4346395199999975
4 1 6.548234495026974 5.155397656878253 5.889523815
5 2 10.119998764943734 4.468011302634693 4.34440811
6 3 10.119998764943734 4.468011302634693 7.4346395199999975
7 1 9.524704720015896 6.186477188253905 5.889523815
8 2 4.762352360015016 5.499090834010344 4.34440811
9 3 4.762352360015016 5.499090834010344 7.4346395199999975
10 1 0.0 0.0 5.889523815
11 2 7.738822585003941 6.530170365385996 4.34440811
12 3 7.738822585003941 6.530170365385996 7.4346395199999975
13 1 2.976470224988922 1.0310795313756507 5.889523815
14 2 6.5482344949056825 0.3436931771320912 4.34440811
15 3 6.5482344949056825 0.3436931771320912 7.4346395199999975
16 1 5.952940449977844 2.0621590627513013 5.889523815
17 2 1.190588089976965 1.374772708507742 4.34440811
18 3 1.190588089976965 1.374772708507742 7.4346395199999975
19 1 8.929410674966768 3.0932385941269516 5.889523815
20 2 4.167058314965888 2.4058522398833904 4.34440811
21 3 4.167058314965888 2.4058522398833904 7.4346395199999975
22 4 0.0 0.0 12.589523815
23 5 3.5717642699182885 0.6873863542356191 11.04440811
24 6 3.5717642699182885 0.6873863542356191 14.134639519999997
25 4 2.3811761799925133 2.062159062755271 12.589523815
26 5 5.952940449910803 2.7495454169908906 11.04440811
27 6 5.952940449910803 2.7495454169908906 14.134639519999997
28 4 4.762352359985027 4.124318125510542 12.589523815
29 5 8.334116629903315 4.81170447974616 11.04440811
30 6 8.334116629903315 4.81170447974616 14.134639519999997
31 4 7.143528539977541 6.186477188265814 12.589523815
32 5 10.715292809895832 6.873863542501434 11.04440811
33 6 10.715292809895832 6.873863542501434 14.134639519999997
34 4 5.3576464049310095 1.031079531363739 12.589523815
35 5 8.929410674849297 1.7184658855993578 11.04440811
36 6 8.929410674849297 1.7184658855993578 14.134639519999997
37 4 7.738822584923524 3.0932385941190113 12.589523815
38 5 2.976470224972307 3.7806249483824215 11.04440811
39 6 2.976470224972307 3.7806249483824215 14.134639519999997
40 4 10.119998764916037 5.155397656874284 12.589523815
41 5 5.357646404964822 5.8427840111376925 11.04440811
42 6 5.357646404964822 5.8427840111376925 14.134639519999997
