ITEM: TIMESTEP
857
ITEM: NUMBER OF ATOMS
90048
ITEM: BOX BOUNDS xy xz yz pp pp pp
0.0000000000000000e+00 2.8413207070875922e+02 7.8541830898483540e-09
0.0000000000000000e+00 4.9213118251778315e+02 0.0000000000000000e+00
0.0000000000000000e+00 3.5000000000000007e+01 0.0000000000000000e+00
ITEM: ATOMS id type x y z
1 3 2.49077 483.791 16.1903
2 6 5.40928 485.31 16.1909
3 9 5.28136 482.039 16.2304
4 12 8.19781 483.565 16.2389
5 2 4.37677 483.731 17.8701
6 5 4.51238 487.003 17.8338
7 11 7.28882 485.25 17.8792
8 8 7.16455 481.984 17.9151
9 1 2.47119 483.832 19.5266
10 4 5.37541 485.342 19.5272
11 7 5.25101 482.078 19.5669
12 10 8.15708 483.594 19.5754
13 3 5.54961 488.59 16.1627
14 6 8.46863 490.116 16.1911
15 9 8.32869 486.836 16.2088
16 12 11.2442 488.373 16.2394
17 2 7.4266 488.522 17.8532
18 5 7.57121 491.798 17.8434
19 11 10.34 490.052 17.8871
20 8 10.2029 486.779 17.9031
21 1 5.51446 488.607 19.4989
22 4 8.42318 490.121 19.5274
23 7 8.28404 486.856 19.5452
24 10 11.1956 488.382 19.5759
25 3 2.12565 470.72 16.3486
26 6 5.00883 472.261 16.3389
27 9 4.95226 469.005 16.3591
28 12 7.84012 470.55 16.3522
29 2 4.01949 470.667 18.0184
30 5 4.08056 473.93 17.9924
31 11 6.90426 472.208 18.0106
32 8 6.85017 468.953 18.028
33 1 2.11728 470.743 19.6859
34 4 4.99749 472.285 19.6762
35 7 4.94614 469.022 19.6964
36 10 7.83108 470.565 19.6894
37 3 5.08066 475.517 16.31
38 6 7.9837 477.049 16.3067
39 9 7.90394 473.799 16.3332
40 12 10.8071 475.337 16.3347
41 2 6.97253 475.464 17.9856
42 5 7.05866 478.722 17.9527
43 11 9.8735 476.998 17.987
44 8 9.79892 473.747 18.0083
45 1 5.06284 475.549 19.647
46 4 7.95848 477.076 19.6437
47 7 7.88746 473.82 19.6703
48 10 10.7848 475.353 19.6717
49 3 8.08172 480.303 16.2739
50 6 10.9951 481.838 16.2868
51 9 10.8926 478.585 16.3131
52 12 13.802 480.13 16.3275
53 2 9.96571 480.253 17.9597
54 5 10.0763 483.513 17.9296
55 11 12.8761 481.794 17.9759
56 8 12.7796 478.538 17.9972
57 1 8.04785 480.334 19.6106
58 4 10.9552 481.861 19.6235
59 7 10.8611 478.606 19.65
60 10 13.7679 480.144 19.6644
61 3 11.1137 485.101 16.26
62 6 14.0249 486.651 16.2878
63 9 13.9066 483.385 16.3073
64 12 16.8132 484.948 16.3293
65 2 12.9893 485.055 17.9534
66 5 13.1158 488.323 17.9353
67 11 15.9004 486.614 17.9796
68 8 15.7864 483.349 17.9964
69 1 11.0678 485.12 19.5966
70 4 13.9808 486.661 19.6246
71 7 13.8661 483.4 19.6441
72 10 16.7778 484.958 19.6663
73 3 14.1525 489.926 16.2749
74 6 17.0529 491.497 16.3076
75 9 16.9298 488.218 16.3152
76 12 19.8286 489.802 16.337
77 2 16.025 489.886 17.9679
78 5 16.1537 1.03381 17.9653
79 11 18.929 491.467 17.9949
80 8 18.8078 488.191 18.0024
81 1 14.108 489.927 19.6117
82 4 17.0179 491.494 19.6447
83 7 16.8934 488.223 19.6522
84 10 19.8026 489.804 19.6742
85 3 1.96786 457.643 16.3912
86 6 4.83319 459.223 16.3863
87 9 4.79831 455.959 16.3902
88 12 7.6711 457.538 16.3836
89 2 3.86386 457.608 18.0584
90 5 3.89712 460.874 18.0538
91 11 6.73325 459.184 18.0521
92 8 6.6981 455.925 18.0559
93 1 1.96743 457.647 19.7284
94 4 4.83495 459.229 19.7235
95 7 4.8011 455.963 19.7273
96 10 7.67545 457.543 19.7208
97 3 4.86828 462.486 16.3807
98 6 7.74568 464.048 16.3734
99 9 7.70757 460.794 16.3792
100 12 10.5913 462.355 16.3721
101 2 6.76826 462.442 18.0469
102 5 6.80612 465.698 18.0394
103 11 9.64857 464 18.0398
104 8 9.61097 460.75 18.0445
105 1 4.86842 462.494 19.718
106 4 7.74603 464.056 19.7107
107 7 7.71038 460.8 19.7165
108 10 10.593 462.361 19.7093
109 3 7.78866 467.3 16.365
110 6 10.6805 468.848 16.3606
111 9 10.633 465.603 16.3673
112 12 13.5276 467.153 16.3657
113 2 9.69017 467.249 18.0331
114 5 9.73906 470.498 18.0232
115 11 12.582 468.796 18.0313
116 8 12.5368 465.552 18.0355
117 1 7.78519 467.311 19.7022
118 4 10.6736 468.856 19.6977
119 7 10.6311 465.609 19.7045
120 10 13.5216 467.155 19.7028
121 3 10.7374 472.093 16.3502
122 6 13.6396 473.637 16.3553
123 9 13.5788 470.395 16.362
124 12 16.4788 471.946 16.3698
125 2 12.6353 472.041 18.0246
126 5 12.7001 475.288 18.0136
127 11 15.5353 473.59 18.0326
128 8 15.4785 470.345 18.0359
129 1 10.7236 472.104 19.6873
130 4 13.6212 473.644 19.6923
131 7 13.5673 470.399 19.699
132 10 16.4634 471.945 19.7068
133 3 13.7132 476.881 16.344
134 6 16.6178 478.436 16.3582
135 9 16.5419 475.189 16.3663
136 12 19.4408 476.752 16.3797
137 2 15.6039 476.838 18.0253
138 5 15.6872 480.091 18.0129
139 11 18.507 478.4 18.0395
140 8 18.4354 475.148 18.045
141 1 13.6869 476.892 19.681
142 4 16.5911 478.442 19.6951
143 7 16.521 475.192 19.7032
144 10 19.4206 476.753 19.7166
145 3 16.7083 481.688 16.3451
146 6 19.6097 483.261 16.361
147 9 19.5182 480.004 16.3726
148 12 22.4139 481.586 16.3832
149 2 18.5932 481.658 18.029
150 5 18.6942 484.921 18.0153
151 11 21.4959 483.241 18.0413
152 8 21.4073 479.978 18.0518
153 1 16.6763 481.697 19.6821
154 4 19.5838 483.269 19.6979
155 7 19.4947 480.008 19.7095
156 10 22.3958 481.592 19.7201
157 3 19.7144 486.527 16.3476
158 6 22.6111 488.122 16.3595
159 9 22.5067 484.85 16.3715
160 12 25.4003 486.452 16.376
161 2 21.5981 486.51 18.0288
162 5 21.7104 489.784 18.0184
163 11 24.4979 488.113 18.0359
164 8 24.3949 484.839 18.0477
165 1 19.6875 486.534 19.6847
166 4 22.5933 488.127 19.6966
167 7 22.4882 484.857 19.7085
168 10 25.3888 486.46 19.713
169 3 22.7224 491.401 16.3516
170 6 25.6129 0.881474 16.3601
171 9 25.5045 489.729 16.3654
172 12 28.3957 491.347 16.3674
173 2 24.6082 491.391 18.0278
174 5 24.7195 2.54188 18.0261
175 11 27.5017 0.875569 18.0327
176 8 27.3939 489.726 18.0382
177 1 22.7066 491.401 19.6888
178 4 25.6048 0.879922 19.6973
179 7 25.4944 489.734 19.7025
180 10 28.391 491.35 19.7045
181 3 1.79104 444.546 16.3902
182 6 4.66482 446.155 16.3912
183 9 4.60095 442.883 16.3863
184 12 7.48166 444.49 16.3864
185 2 3.68634 444.53 18.0584
186 5 3.74323 447.802 18.0621
187 11 6.56282 446.136 18.0582
188 8 6.4983 442.868 18.0538
189 1 1.7934 444.541 19.7273
190 4 4.66879 446.153 19.7284
191 7 4.60501 442.879 19.7235
192 10 7.48807 444.488 19.7236
193 3 4.71715 449.424 16.3932
194 6 7.59113 451.018 16.389
195 9 7.54158 447.755 16.3891
196 12 10.4229 449.345 16.3837
197 2 6.61584 449.401 18.0596
198 5 6.65994 452.664 18.0586
199 11 9.49327 450.99 18.0541
200 8 9.44287 447.732 18.0546
201 1 4.72093 449.425 19.7303
202 4 7.59695 451.021 19.7262
203 7 7.54774 447.756 19.7263
204 10 10.4311 449.348 19.7209
205 3 7.63328 454.279 16.3869
206 6 10.5133 455.855 16.3793
207 9 10.4711 452.601 16.3821
208 12 13.358 454.173 16.3743
209 2 9.53613 454.245 18.0517
210 5 9.57442 457.499 18.0484
211 11 12.4189 455.815 18.0439
212 8 12.3764 452.566 18.0464
213 1 7.63855 454.283 19.7241
214 4 10.5192 455.86 19.7165
215 7 10.4783 452.606 19.7193
216 10 13.3648 454.177 19.7115
217 3 10.5524 459.106 16.3759
218 6 13.4416 460.666 16.37
219 9 13.4009 457.42 16.3721
220 12 16.2943 458.978 16.3685
221 2 12.458 459.062 18.0412
222 5 12.4964 462.308 18.0386
223 11 15.3476 460.617 18.0374
224 8 15.3076 457.375 18.0381
225 1 10.5566 459.111 19.7131
226 4 13.4432 460.669 19.7072
227 7 13.4052 457.424 19.7093
228 10 16.295 458.979 19.7057
229 3 13.4829 463.91 16.3681
230 6 16.3788 465.462 16.3697
231 9 16.336 462.22 16.3689
232 12 19.2316 463.774 16.3741
233 2 15.3876 463.86 18.0372
234 5 15.4303 467.102 18.037
235 11 18.2815 465.411 18.042
236 8 18.2405 462.169 18.0394
237 1 13.4812 463.912 19.7052
238 4 16.3726 465.461 19.7068
239 7 16.3334 462.22 19.7061
240 10 19.2245 463.769 19.7111
241 3 16.4254 468.704 16.3704
242 6 19.3218 470.26 16.3807
243 9 19.2746 467.016 16.3776
244 12 22.1663 468.577 16.3896
245 2 18.3256 468.654 18.0446
246 5 18.3759 471.9 18.0462
247 11 21.2193 470.215 18.0565
248 8 21.1743 466.968 18.0523
249 1 16.415 468.702 19.7074
250 4 19.3085 470.255 19.7176
251 7 19.2645 467.011 19.7146
252 10 22.1544 468.57 19.7265
253 3 19.3762 473.505 16.3819
254 6 22.2686 475.075 16.3945
255 9 22.2134 471.825 16.3934
256 12 25.0989 473.401 16.4049
257 2 21.2711 473.465 18.0589
258 5 21.3329 476.719 18.0578
259 11 24.1622 475.044 18.0703
260 8 24.1088 471.787 18.0691
261 1 19.3595 473.502 19.7188
262 4 22.2534 475.072 19.7313
263 7 22.1999 471.819 19.7302
264 10 25.0874 473.397 19.7417
265 3 22.3347 478.328 16.3913
266 6 25.224 479.917 16.3983
267 9 25.1555 476.658 16.4039
268 12 28.038 478.253 16.4085
269 2 24.2265 478.305 18.0672
270 5 24.3038 481.57 18.0592
271 11 27.1161 479.904 18.0714
272 8 27.0487 476.636 18.0775
273 1 22.3179 478.33 19.7281
274 4 25.2117 479.922 19.7351
275 7 25.1436 476.658 19.7407
276 10 28.0297 478.256 19.7452
277 3 25.3057 483.182 16.3882
278 6 28.1951 484.79 16.388
279 9 28.1099 481.519 16.3998
280 12 30.994 483.13 16.397
281 2 27.1968 483.174 18.0611
282 5 27.2905 486.449 18.0488
283 11 30.0871 484.789 18.0585
284 8 30.0024 481.513 18.0706
285 1 25.2935 483.189 19.7251
286 4 28.1877 484.799 19.7249
287 7 28.1019 481.527 19.7367
288 10 30.9892 483.14 19.7338
289 3 28.2917 488.066 16.3759
290 6 31.182 489.686 16.3735
291 9 31.0831 486.406 16.3843
292 12 33.9708 488.029 16.3791
293 2 30.1834 488.067 18.0464
294 5 30.287 491.347 18.0379
295 11 33.0745 489.69 18.0427
296 8 32.9757 486.409 18.0534
297 1 28.2855 488.073 19.7129
298 4 31.1792 489.693 19.7106
299 7 31.0791 486.416 19.7212
300 10 33.969 488.039 19.7161
301 3 1.44489 431.423 16.3689
302 6 4.33487 433.049 16.3681
303 9 4.23099 429.765 16.3697
304 12 7.1209 431.389 16.3657
305 2 3.33869 431.425 18.0372
306 5 3.44034 434.704 18.0386
307 11 6.22999 433.047 18.0355
308 8 6.12511 429.766 18.037
309 1 1.44573 431.425 19.7061
310 4 4.33771 433.049 19.7052
311 7 4.23275 429.771 19.7068
312 10 7.12593 431.393 19.7028
313 3 4.43428 436.33 16.3721
314 6 7.32315 437.948 16.3734
315 9 7.22565 434.671 16.3673
316 12 10.1179 436.285 16.365
317 2 6.33025 436.324 18.0398
318 5 6.42065 439.598 18.0469
319 11 9.22172 437.937 18.0394
320 8 9.12309 434.664 18.0331
321 1 4.43788 436.326 19.7093
322 4 7.3297 437.944 19.7107
323 7 7.2317 434.669 19.7045
324 10 10.1289 436.283 19.7022
325 3 7.40907 441.221 16.3807
326 6 10.2963 442.824 16.379
327 9 10.2136 439.558 16.3723
328 12 13.1067 441.155 16.3672
329 2 9.30859 441.206 18.0467
330 5 9.38206 444.47 18.0522
331 11 12.1994 442.802 18.0428
332 8 12.1157 439.539 18.0357
333 1 7.41567 441.217 19.718
334 4 10.3064 442.822 19.7163
335 7 10.2244 439.554 19.7096
336 10 13.1225 441.153 19.7045
337 3 10.3656 446.087 16.3829
338 6 13.2541 447.671 16.3761
339 9 13.1871 444.416 16.3733
340 12 16.0825 445.993 16.3646
341 2 12.2695 446.061 18.0469
342 5 12.3276 449.315 18.0478
343 11 15.1612 447.637 18.0388
344 8 15.0939 444.385 18.0349
345 1 10.3748 446.087 19.7202
346 4 13.2655 447.673 19.7134
347 7 13.2008 444.415 19.7107
348 10 16.0984 445.993 19.702
349 3 13.3101 450.923 16.376
350 6 16.2031 452.49 16.3687
351 9 16.148 449.243 16.3678
352 12 19.0465 450.803 16.3614
353 2 15.2173 450.885 18.0398
354 5 15.2651 454.131 18.0391
355 11 18.1113 452.444 18.0337
356 8 18.0571 449.2 18.0307
357 1 13.3191 450.927 19.7133
358 4 16.2108 452.492 19.7059
359 7 16.1597 449.245 19.7051
360 10 19.0559 450.802 19.6987
361 3 16.2509 455.734 16.3685
362 6 19.1472 457.289 16.3678
363 9 19.1003 454.047 16.365
364 12 21.998 455.598 16.3674
365 2 18.158 455.686 18.0355
366 5 18.2002 458.928 18.0373
367 11 21.0525 457.236 18.0379
368 8 21.0074 453.994 18.0327
369 1 16.255 455.736 19.7058
370 4 19.147 457.287 19.705
371 7 19.1045 454.046 19.7022
372 10 21.9977 455.593 19.7045
373 3 19.1901 460.531 16.3707
374 6 22.0837 462.086 16.3791
375 9 22.0427 458.842 16.3735
376 12 24.9329 460.396 16.3843
377 2 21.0935 460.479 18.0427
378 5 21.1333 463.722 18.0475
379 11 23.984 462.034 18.0534
380 8 23.9449 458.787 18.0464
381 1 19.1862 460.528 19.7079
382 4 22.0762 462.079 19.7161
383 7 22.0382 458.836 19.7106
384 10 24.926 460.387 19.7212
385 3 22.124 465.331 16.3846
386 6 25.0099 466.895 16.3975
387 9 24.9713 463.645 16.3913
388 12 27.8506 465.212 16.404
389 2 24.0226 465.282 18.0597
390 5 24.0633 468.533 18.0651
391 11 26.906 466.852 18.0724
392 8 26.8688 463.596 18.0662
393 1 22.1141 465.323 19.7215
394 4 24.9997 466.887 19.7343
395 7 24.9624 463.636 19.7282
396 10 27.843 465.204 19.7408
397 3 25.0514 470.147 16.4023
398 6 27.9295 471.729 16.4125
399 9 27.8879 468.47 16.4093
400 12 30.7586 470.055 16.4176
401 2 26.9465 470.111 18.0769
402 5 26.993 473.372 18.079
403 11 29.8236 471.7 18.0852
404 8 29.7826 468.434 18.0826
405 1 25.0404 470.141 19.7391
406 4 27.9212 471.725 19.7492
407 7 27.8797 468.463 19.746
408 10 30.7536 470.051 19.7543
409 3 27.9786 474.99 16.4126
410 6 30.8539 476.589 16.4155
411 9 30.8019 473.321 16.4184
412 12 33.6699 474.923 16.4199
413 2 29.8721 474.968 18.0846
414 5 29.931 478.239 18.0798
415 11 32.747 476.574 18.0855
416 8 32.6952 473.299 18.089
417 1 27.9702 474.989 19.7493
418 4 30.8485 476.592 19.7521
419 7 30.7965 473.32 19.7551
420 10 33.6672 474.926 19.7565
421 3 30.9174 479.858 16.4081
422 6 33.7954 481.471 16.404
423 9 33.7264 478.196 16.414
424 12 36.5977 479.81 16.4093
425 2 32.8103 479.851 18.0776
426 5 32.8867 483.13 18.0662
427 11 35.6879 481.469 18.0724
428 8 35.619 478.188 18.0826
429 1 30.9122 479.865 19.7449
430 4 33.7922 481.482 19.7408
431 7 33.7233 478.203 19.7507
432 10 36.5961 479.821 19.746
433 3 33.8774 484.749 16.3913
434 6 36.761 486.372 16.3846
435 9 36.673 483.09 16.3975
436 12 39.5513 484.712 16.3896
437 2 35.77 484.751 18.0597
438 5 35.8637 488.034 18.0475
439 11 38.6536 486.375 18.0523
440 8 38.5652 483.091 18.0651
441 1 33.8747 484.76 19.7282
442 4 36.7598 486.384 19.7215
443 7 36.6714 483.103 19.7343
444 10 39.5512 484.725 19.7265
445 3 36.8588 489.655 16.3741
446 6 39.7475 491.281 16.3697
447 9 39.6455 487.996 16.3776
448 12 42.5316 489.62 16.3704
449 2 38.752 489.659 18.042
450 5 38.8552 0.809747 18.0372
451 11 41.6416 491.283 18.037
452 8 41.5386 487.999 18.0446
453 1 36.8586 489.663 19.7111
454 4 39.7493 491.287 19.7068
455 7 39.6462 488.008 19.7146
456 10 42.5352 489.63 19.7074
457 3 1.08116 418.294 16.4093
458 6 3.95225 419.912 16.4023
459 9 3.88275 416.628 16.4125
460 12 6.74659 418.243 16.4049
461 2 2.97311 418.289 18.0769
462 5 3.04869 421.574 18.0651
463 11 5.8438 419.908 18.0691
464 8 5.7741 416.618 18.079
465 1 1.0796 418.304 19.746
466 4 3.95203 419.924 19.7391
467 7 3.8833 416.638 19.7492
468 10 6.74885 418.255 19.7417
469 3 4.03482 423.195 16.3896
470 6 6.91446 424.817 16.3807
471 9 6.8241 421.53 16.3934
472 12 9.69753 423.148 16.3819
473 2 5.92697 423.196 18.0565
474 5 6.0221 426.483 18.0446
475 11 8.80746 424.817 18.0462
476 8 8.71592 421.526 18.0589
477 1 4.03467 423.209 19.7265
478 4 6.91689 424.831 19.7176
479 7 6.82595 421.545 19.7302
480 10 9.70328 423.164 19.7188
481 3 7.01505 428.104 16.3704
482 6 9.90307 429.723 16.362
483 9 9.79611 426.436 16.3698
484 12 12.6806 428.049 16.3553
485 2 8.90956 428.103 18.0359
486 5 9.01697 431.386 18.0313
487 11 11.8005 429.717 18.0246
488 8 11.6914 426.432 18.0326
489 1 7.01871 428.114 19.7074
490 4 9.91197 429.731 19.699
491 7 9.80325 426.45 19.7068
492 10 12.6954 428.062 19.6923
493 3 10.0125 433.007 16.3606
494 6 12.9066 434.616 16.3522
495 9 12.7938 431.335 16.3502
496 12 15.6884 432.936 16.3332
497 2 11.9119 432.997 18.0232
498 5 12.0189 436.271 18.028
499 11 14.8108 434.597 18.0106
500 8 14.6958 431.321 18.0083
501 1 10.0229 433.009 19.6977
502 4 12.9244 434.616 19.6894
503 7 12.8106 431.341 19.6873
504 10 15.7151 432.939 19.6703
505 3 13.0125 437.889 16.3591
506 6 15.9108 439.48 16.3486
507 9 15.8043 436.212 16.3389
508 12 18.7068 437.793 16.3207
509 2 14.9181 437.866 18.0184
510 5 15.0131 441.128 18.0276
511 11 17.8211 439.445 18.0041
512 8 17.714 436.181 17.9924
513 1 13.0299 437.886 19.6964
514 4 15.9348 439.475 19.6859
515 7 15.8307 436.21 19.6762
516 10 18.7408 437.787 19.6579
517 3 16.0038 442.74 16.358
518 6 18.9055 444.309 16.3467
519 9 18.8136 441.055 16.3343
520 12 21.7209 442.615 16.3197
521 2 17.9142 442.702 18.016
522 5 17.9923 445.953 18.0251
523 11 20.8183 444.26 18.0038
524 8 20.7277 441.007 17.9873
525 1 16.0241 442.737 19.6954
526 4 18.928 444.304 19.6841
527 7 18.8425 441.048 19.6716
528 10 21.751 442.602 19.6569
529 3 18.9825 447.558 16.3557
530 6 21.8854 449.112 16.3504
531 9 21.8109 445.866 16.3371
532 12 24.7171 447.412 16.3331
533 2 20.8934 447.507 18.0169
534 5 20.9554 450.752 18.0261
535 11 23.795 449.051 18.014
536 8 23.7236 445.804 17.9956
537 1 18.9982 447.555 19.6931
538 4 21.898 449.104 19.6877
539 7 21.8321 445.855 19.6743
540 10 24.734 447.394 19.6703
541 3 21.9467 452.355 16.3601
542 6 24.8442 453.903 16.3654
543 9 24.7872 450.658 16.3516
544 12 27.6831 452.201 16.3595
545 2 23.8535 452.296 18.0278
546 5 23.9023 455.541 18.0382
547 11 26.7476 453.84 18.0359
548 8 26.6937 450.59 18.0184
549 1 21.9521 452.349 19.6973
550 4 24.8454 453.892 19.7025
551 7 24.7953 450.644 19.6888
552 10 27.6874 452.183 19.6966
553 3 24.8916 457.149 16.3759
554 6 27.777 458.703 16.388
555 9 27.7344 455.451 16.376
556 12 30.614 457.005 16.3882
557 2 26.7925 457.09 18.0488
558 5 26.8319 460.342 18.0585
559 11 29.6749 458.646 18.0611
560 8 29.6342 455.387 18.0477
561 1 24.8879 457.14 19.7129
562 4 27.7725 458.692 19.7249
563 7 27.7333 455.438 19.713
564 10 30.6135 456.99 19.7251
565 3 27.8147 461.957 16.397
566 6 30.6868 463.527 16.4081
567 9 30.6521 460.265 16.3998
568 12 33.5167 461.836 16.4085
569 2 29.7111 461.907 18.0706
570 5 29.7461 465.169 18.0776
571 11 32.5817 463.482 18.0798
572 8 32.5479 460.212 18.0714
573 1 27.8081 461.948 19.7338
574 4 30.6829 463.518 19.7449
575 7 30.6495 460.254 19.7367
576 10 33.5177 461.827 19.7452
577 3 30.7213 466.79 16.414
578 6 33.5845 468.378 16.4199
579 9 33.5499 465.106 16.4155
580 12 36.4056 466.695 16.4184
581 2 32.6155 466.753 18.0855
582 5 32.6524 470.025 18.0887
583 11 35.4779 468.346 18.089
584 8 35.4438 465.066 18.0846
585 1 30.7167 466.784 19.7507
586 4 33.5833 468.374 19.7565
587 7 33.5497 465.1 19.7521
588 10 36.4089 466.691 19.7551
589 3 33.6235 471.65 16.4216
590 6 36.4841 473.253 16.4216
591 9 36.4419 469.974 16.4216
592 12 39.2952 471.576 16.4199
593 2 35.5165 471.626 18.0906
594 5 35.5626 474.906 18.0887
595 11 38.3764 473.232 18.089
596 8 38.3346 469.946 18.0887
597 1 33.6214 471.649 19.7582
598 4 36.4844 473.255 19.7582
599 7 36.4436 469.973 19.7582
600 10 39.2991 471.577 19.7565
601 3 36.5352 476.531 16.4176
602 6 39.3993 478.145 16.4125
603 9 39.3421 474.861 16.4184
604 12 42.1987 476.472 16.4126
605 2 38.4272 476.519 18.0852
606 5 38.4896 479.805 18.0769
607 11 41.2906 478.134 18.079
608 8 41.2336 474.843 18.0846
609 1 36.5344 476.538 19.7543
610 4 39.3998 478.154 19.7492
611 7 39.3441 474.866 19.7551
612 10 42.2023 476.479 19.7493
613 3 39.4688 481.428 16.4023
614 6 42.3406 483.047 16.3934
615 9 42.2631 479.76 16.4049
616 12 45.1277 481.374 16.3945
617 2 41.3603 481.424 18.0691
618 5 41.4435 484.713 18.0565
619 11 44.2324 483.043 18.0589
620 8 44.1542 479.75 18.0703
621 1 39.4685 481.441 19.7391
622 4 42.3425 483.061 19.7302
623 7 42.2654 479.772 19.7417
624 10 45.133 481.389 19.7313
625 3 42.431 486.334 16.3807
626 6 45.3126 487.953 16.3698
627 9 45.214 484.664 16.3819
628 12 48.09 486.276 16.3663
629 2 44.324 486.333 18.0462
630 5 44.4261 489.62 18.0359
631 11 47.2079 487.948 18.0326
632 8 47.1074 484.657 18.045
633 1 42.4334 486.348 19.7176
634 4 45.3198 487.966 19.7068
635 7 45.2198 484.68 19.7188
636 10 48.1024 486.293 19.7032
637 3 45.4196 491.24 16.362
638 6 48.3103 0.720475 16.3502
639 9 48.1971 489.566 16.3553
640 12 51.0855 491.169 16.3347
641 2 47.317 491.234 18.0246
642 5 47.4284 2.38241 18.0232
643 11 50.2123 0.705998 18.0083
644 8 50.0965 489.554 18.0136
645 1 45.4285 491.248 19.699
646 4 48.3271 0.726668 19.6873
647 7 48.2119 489.579 19.6923
648 10 51.1107 491.18 19.6717
649 3 0.889057 405.179 16.4184
650 6 3.73915 406.774 16.4176
651 9 3.70421 403.487 16.4125
652 12 6.54743 405.081 16.4093
653 2 2.78222 405.142 18.0852
654 5 2.81806 408.429 18.0887
655 11 5.63147 406.74 18.0826
656 8 5.59692 403.445 18.0769
657 1 0.892359 405.174 19.7551
658 4 3.7451 406.772 19.7543
659 7 3.71203 403.482 19.7492
660 10 6.55717 405.077 19.746
661 3 3.77866 410.06 16.4199
662 6 6.62924 411.666 16.4155
663 9 6.58528 408.374 16.414
664 12 9.42881 409.976 16.4081
665 2 5.67052 410.033 18.0855
666 5 5.71709 413.326 18.0846
667 11 8.52035 411.64 18.0798
668 8 8.47669 408.34 18.0776
669 1 3.78257 410.061 19.7565
670 4 6.6348 411.669 19.7521
671 7 6.59303 408.373 19.7507
672 10 9.43794 409.977 19.7449
673 3 6.68216 414.955 16.4126
674 6 9.5384 416.566 16.4039
675 9 9.47835 413.272 16.4085
676 12 12.3272 414.877 16.3983
677 2 8.5731 414.937 18.0775
678 5 8.63773 418.233 18.0703
679 11 11.4294 416.547 18.0672
680 8 11.369 413.245 18.0714
681 1 6.68575 414.963 19.7493
682 4 9.54427 416.577 19.7407
683 7 9.48567 413.278 19.7452
684 10 12.337 414.885 19.7351
685 3 9.61119 419.858 16.3945
686 6 12.4776 421.468 16.3797
687 9 12.3954 418.174 16.3913
688 12 15.2547 419.775 16.3726
689 2 11.5031 419.846 18.0578
690 5 11.5909 423.141 18.045
691 11 14.3717 421.453 18.0395
692 8 14.2877 418.152 18.0518
693 1 9.61645 419.872 19.7313
694 4 12.4882 421.485 19.7166
695 7 12.4052 418.188 19.7281
696 10 15.2706 419.793 19.7095
697 3 12.5735 424.76 16.3663
698 6 15.4532 426.364 16.344
699 9 15.3471 423.071 16.3582
700 12 18.222 424.663 16.3275
701 2 14.4701 424.748 18.0253
702 5 14.58 428.038 18.0136
703 11 17.355 426.344 17.9972
704 8 17.2454 423.05 18.0129
705 1 12.5859 424.777 19.7032
706 4 15.4754 426.381 19.681
707 7 15.366 423.091 19.6951
708 10 18.2513 424.685 19.6644
709 3 15.569 429.653 16.3347
710 6 18.463 431.242 16.3067
711 9 18.3387 427.955 16.3131
712 12 21.2322 429.53 16.2739
713 2 17.4742 429.631 17.987
714 5 17.5963 432.91 17.9856
715 11 20.3747 431.206 17.9527
716 8 20.2469 427.923 17.9597
717 1 15.5942 429.664 19.6717
718 4 18.4995 431.25 19.6437
719 7 18.3724 427.972 19.65
720 10 21.2761 429.544 19.6106
721 3 18.5881 434.522 16.31
722 6 21.4941 436.091 16.2825
723 9 21.3644 432.814 16.2725
724 12 24.2738 434.369 16.2368
725 2 20.5019 434.481 17.9569
726 5 20.6214 437.748 17.9701
727 11 23.4121 436.034 17.9264
728 8 23.2813 432.762 17.9141
729 1 18.6247 434.521 19.647
730 4 21.5375 436.083 19.6195
731 7 21.4098 432.817 19.6093
732 10 24.3221 434.363 19.5734
733 3 21.6146 439.358 16.3001
734 6 24.5267 440.907 16.2823
735 9 24.4064 437.643 16.256
736 12 27.3225 439.181 16.2369
737 2 23.5319 439.297 17.9479
738 5 23.6363 442.553 17.9727
739 11 26.4434 440.831 17.932
740 8 26.325 437.569 17.9005
741 1 21.6525 439.345 19.6372
742 4 24.5633 440.886 19.6193
743 7 24.4505 437.626 19.5927
744 10 27.3609 439.153 19.5735
745 3 24.6307 444.162 16.3094
746 6 27.539 445.7 16.3076
747 9 27.44 442.444 16.2728
748 12 30.3497 443.974 16.2749
749 2 26.5443 444.087 17.9653
750 5 26.627 447.34 17.9949
751 11 29.4483 445.615 17.9679
752 8 29.3528 442.356 17.9272
753 1 24.6576 444.142 19.6466
754 4 27.5598 445.672 19.6447
755 7 27.4703 442.413 19.6097
756 10 30.3711 443.935 19.6117
757 3 27.6193 448.951 16.337
758 6 30.5125 450.49 16.3476
759 9 30.4406 447.233 16.3152
760 12 33.3306 448.767 16.3293
761 2 29.5249 448.873 18.0024
762 5 29.5855 452.13 18.0288
763 11 32.4134 450.409 18.0153
764 8 32.3442 447.144 17.9796
765 1 27.6309 448.928 19.6742
766 4 30.5202 450.463 19.6847
767 7 30.4548 447.199 19.6522
768 10 33.3402 448.732 19.6663
769 3 30.5688 453.747 16.3715
770 6 33.442 455.298 16.3832
771 9 33.3931 452.032 16.361
772 12 36.2601 453.582 16.3726
773 2 32.4675 453.676 18.0413
774 5 32.511 456.943 18.0592
775 11 35.338 455.231 18.0518
776 8 35.2901 451.954 18.029
777 1 30.5717 453.727 19.7085
778 4 33.4462 455.28 19.7201
779 7 33.3996 452.006 19.6979
780 10 36.2678 453.559 19.7095
781 3 33.4819 458.566 16.3983
782 6 36.3391 460.137 16.4039
783 9 36.3029 456.859 16.3913
784 12 39.1532 458.428 16.3945
785 2 35.3771 458.509 18.0672
786 5 35.4112 461.787 18.0775
787 11 38.233 460.083 18.0703
788 8 38.1971 456.796 18.0578
789 1 33.4843 458.553 19.7351
790 4 36.3452 460.127 19.7407
791 7 36.31 456.843 19.7281
792 10 39.1632 458.416 19.7313
793 3 36.3723 463.416 16.4126
794 6 39.2207 465.004 16.4125
795 9 39.1875 461.716 16.4049
796 12 42.0294 463.302 16.4023
797 2 38.2659 463.371 18.079
798 5 38.2987 466.658 18.0852
799 11 41.1134 464.961 18.0769
800 8 41.0804 461.666 18.0691
801 1 36.3771 463.409 19.7493
802 4 39.2285 464.999 19.7492
803 7 39.1968 461.708 19.7417
804 10 42.0406 463.296 19.7391
805 3 39.2557 468.291 16.4176
806 6 42.1018 469.891 16.414
807 9 42.0639 466.597 16.4093
808 12 44.9035 468.194 16.404
809 2 41.148 468.256 18.0826
810 5 41.187 471.55 18.0855
811 11 43.9932 469.857 18.0776
812 8 43.9556 466.556 18.0724
813 1 39.2616 468.288 19.7543
814 4 42.1095 469.89 19.7507
815 7 42.0737 466.593 19.746
816 10 44.9143 468.191 19.7408
817 3 42.1457 473.182 16.4155
818 6 44.9949 474.789 16.4085
819 9 44.9453 471.493 16.4081
820 12 47.7875 473.093 16.3998
821 2 44.0369 473.156 18.0798
822 5 44.0896 476.454 18.0775
823 11 46.8856 474.762 18.0714
824 8 46.836 471.458 18.0706
825 1 42.1513 473.185 19.7521
826 4 45.0022 474.794 19.7452
827 7 44.9545 471.493 19.7449
828 10 47.7982 473.097 19.7367
829 3 45.0549 478.083 16.4039
830 6 47.9119 479.69 16.3913
831 9 47.8437 476.393 16.3983
832 12 50.6936 477.993 16.3832
833 2 46.9459 478.064 18.0672
834 5 47.0196 481.362 18.0578
835 11 49.8042 479.669 18.0518
836 8 49.7347 476.364 18.0592
837 1 45.0608 478.093 19.7407
838 4 47.9217 479.704 19.7281
839 7 47.8536 476.402 19.7351
840 10 50.7075 478.006 19.7201
841 3 47.9941 482.984 16.3797
842 6 50.8637 484.587 16.3582
843 9 50.7712 481.292 16.3726
844 12 53.6348 482.883 16.3451
845 2 49.8882 482.969 18.0395
846 5 49.9866 486.265 18.0253
847 11 52.7619 484.566 18.0129
848 8 52.6662 481.266 18.029
849 1 48.0047 483.002 19.7166
850 4 50.8825 484.607 19.6951
851 7 50.7871 481.31 19.7095
852 10 53.659 482.906 19.6821
853 3 50.9697 487.88 16.344
854 6 53.8552 489.471 16.3131
855 9 53.7385 486.179 16.3275
856 12 56.6215 487.756 16.2868
857 2 52.8715 487.86 17.9972
858 5 52.9907 491.147 17.987
859 11 55.7634 489.44 17.9597
860 8 55.6424 486.149 17.9759
861 1 50.9919 487.898 19.681
862 4 53.8889 489.488 19.65
863 7 53.7678 486.201 19.6644
864 10 56.661 487.779 19.6235
865 3 0.743618 392.065 16.3726
866 6 3.59817 393.624 16.3797
867 9 3.55155 390.337 16.3582
868 12 6.40112 391.895 16.3663
869 2 2.63778 391.991 18.0395
870 5 2.68056 395.279 18.0578
871 11 5.49027 393.556 18.045
872 8 5.44253 390.258 18.0253
873 1 0.75125 392.043 19.7095
874 4 3.60776 393.606 19.7166
875 7 3.55949 390.311 19.6951
876 10 6.40958 391.876 19.7032
877 3 3.63673 396.912 16.3945
878 6 6.47898 398.489 16.3934
879 9 6.4428 395.192 16.3819
880 12 9.28024 396.767 16.3807
881 2 5.52945 396.853 18.0589
882 5 5.56391 400.149 18.0691
883 11 8.37025 398.433 18.0565
884 8 8.33312 395.128 18.0462
885 1 3.64668 396.9 19.7313
886 4 6.49065 398.48 19.7302
887 7 6.45369 395.179 19.7188
888 10 9.29108 396.758 19.7176
889 3 6.5129 401.785 16.4023
890 6 9.35013 403.376 16.3975
891 9 9.31543 400.072 16.3896
892 12 12.148 401.659 16.3846
893 2 8.40457 401.737 18.0651
894 5 8.43909 405.039 18.0724
895 11 11.2404 403.327 18.0597
896 8 11.2051 400.018 18.0523
897 1 6.52407 401.779 19.7391
898 4 9.36197 403.371 19.7343
899 7 9.3274 400.065 19.7265
900 10 12.1591 401.654 19.7215
901 3 9.38702 406.677 16.404
902 6 12.2244 408.274 16.397
903 9 12.1843 404.967 16.3913
904 12 15.017 406.558 16.3843
905 2 11.2776 406.635 18.0662
906 5 11.3194 409.941 18.0706
907 11 14.114 408.23 18.0585
908 8 14.0733 404.918 18.0534
909 1 9.3978 406.675 19.7408
910 4 12.2357 408.273 19.7338
911 7 12.1959 404.964 19.7282
912 10 15.0279 406.557 19.7212
913 3 12.271 411.577 16.3998
914 6 15.1133 413.174 16.3882
915 9 15.0609 409.868 16.388
916 12 17.8983 411.457 16.376
917 2 14.1613 411.54 18.0611
918 5 14.2182 414.848 18.0592
919 11 17.0039 413.134 18.0477
920 8 16.9501 409.822 18.0488
921 1 12.2816 411.58 19.7367
922 4 15.126 413.181 19.7251
923 7 15.0728 409.87 19.7249
924 10 17.9109 411.463 19.713
925 3 15.1771 416.476 16.3832
926 6 18.0301 418.067 16.361
927 9 17.9575 414.764 16.3715
928 12 20.8061 416.344 16.3476
929 2 17.0696 416.444 18.0413
930 5 17.1497 419.749 18.029
931 11 19.9254 418.03 18.0153
932 8 19.8494 414.721 18.0288
933 1 15.191 416.489 19.7201
934 4 18.0496 418.086 19.6979
935 7 17.9731 414.776 19.7085
936 10 20.8253 416.364 19.6847
937 3 18.1183 421.367 16.3451
938 6 20.9892 422.944 16.3073
939 9 20.8892 419.646 16.3293
940 12 23.7579 421.209 16.2878
941 2 20.0177 421.334 17.9964
942 5 20.1259 424.632 17.9759
943 11 22.8939 422.904 17.9534
944 8 22.7883 419.603 17.9796
945 1 18.1425 421.39 19.6821
946 4 21.0223 422.972 19.6441
947 7 20.915 419.672 19.6663
948 10 23.789 421.242 19.6246
949 3 21.105 426.239 16.2868
950 6 23.9989 427.798 16.2389
951 9 23.871 424.505 16.26
952 12 26.7663 426.05 16.2088
953 2 23.0149 426.197 17.9296
954 5 23.1464 429.484 17.9151
955 11 25.9129 427.743 17.8792
956 8 25.7802 424.455 17.9031
957 1 21.1445 426.262 19.6235
958 4 24.0445 427.819 19.5754
959 7 23.9104 424.536 19.5966
960 10 26.8061 426.078 19.5452
961 3 24.1356 431.087 16.2304
962 6 27.0484 432.628 16.1903
963 9 26.9048 429.341 16.1909
964 12 29.8208 430.869 16.1523
965 2 26.0529 431.025 17.8701
966 5 26.1927 434.3 17.8779
967 11 28.9646 432.55 17.8335
968 8 28.8192 429.271 17.8338
969 1 24.1843 431.094 19.5669
970 4 27.094 432.624 19.5266
971 7 26.9491 429.354 19.5272
972 10 29.8555 430.872 19.4885
973 3 27.19 435.908 16.2071
974 6 30.1094 437.436 16.1904
975 9 29.9679 434.155 16.1622
976 12 32.8896 435.675 16.1523
977 2 29.1065 435.823 17.8523
978 5 29.2379 439.092 17.8861
979 11 32.0198 437.338 17.8434
980 8 31.8787 434.064 17.8132
981 1 27.2336 435.89 19.5435
982 4 30.1419 437.405 19.5268
983 7 30.0026 434.139 19.4985
984 10 32.9087 435.646 19.4886
985 3 30.2385 440.709 16.2308
986 6 33.1489 442.231 16.2394
987 9 33.0273 438.956 16.1911
988 12 35.938 440.475 16.2088
989 2 32.1474 440.609 17.8871
990 5 32.2562 443.877 17.9353
991 11 35.05 442.127 17.9031
992 8 34.9293 438.851 17.8532
993 1 30.2665 440.67 19.5673
994 4 33.1652 442.185 19.5759
995 7 33.0456 438.914 19.5274