ITEM: TIMESTEP
8836
ITEM: NUMBER OF ATOMS
2382
ITEM: BOX BOUNDS xy xz yz pp pp pp
-2.4507576380039030e+01 4.9015152760001520e+01 -2.4507576380039030e+01
0.0000000000000000e+00 4.2448367459774481e+01 0.0000000000000000e+00
0.0000000000000000e+00 3.5000000000000000e+01 0.0000000000000000e+00
ITEM: ATOMS id type x y z
1 1 46.8911 1.30773 16.9697
2 2 44.0498 1.39088 17.0213
3 1 44.7239 0.139618 17.0069
4 2 41.8834 0.222288 17.087
5 1 44.7963 2.60049 17.0097
6 2 41.9555 2.68281 17.0898
7 1 42.6295 1.43189 17.0612
8 2 39.7898 1.51335 17.1696
9 1 40.4636 0.262529 17.1412
10 2 37.6253 0.342499 17.2758
11 1 44.8687 5.06105 17.0403
12 2 42.0276 5.14279 17.1216
13 1 42.7019 3.89244 17.0783
14 2 39.8617 3.97333 17.1875
15 1 40.5358 2.72304 17.1442
16 2 37.6969 2.80247 17.2788
17 1 38.3707 1.55227 17.237
18 2 35.5331 1.62929 17.3906
19 1 36.2068 0.379282 17.353
20 2 33.3701 0.452721 17.5134
21 1 42.7741 6.35233 17.124
22 2 39.9332 6.43235 17.2344
23 1 40.6079 5.183 17.1765
24 2 37.7683 5.26163 17.3123
25 1 38.4426 4.01231 17.2552
26 2 35.6043 4.08863 17.4096
27 1 36.2783 2.83934 17.3561
28 2 33.4409 2.91219 17.5172
29 1 34.1149 1.66303 17.4715
30 2 31.2774 1.73137 17.6229
31 1 31.9517 0.482464 17.5894
32 2 29.1133 0.54575 17.7132
33 1 42.8456 8.81105 17.1974
34 2 40.0035 8.88982 17.3076
35 1 40.6795 7.64188 17.2369
36 2 37.8386 7.71937 17.3729
37 1 38.5142 6.47141 17.3026
38 2 35.6745 6.54676 17.4575
39 1 36.3497 5.29872 17.3899
40 2 33.5111 5.37078 17.5517
41 1 34.186 4.12263 17.4907
42 2 31.3476 4.19034 17.6434
43 1 32.0224 2.94214 17.5938
44 2 29.1834 3.005 17.7196
45 1 29.8584 1.75684 17.6858
46 2 27.0182 1.81532 17.7698
47 1 27.6935 0.567241 17.7548
48 2 24.8524 0.622884 17.7874
49 1 40.7497 10.0991 17.3219
50 2 37.9066 10.1751 17.4543
51 1 38.5844 8.92897 17.3751
52 2 35.7427 9.0031 17.5275
53 1 36.42 7.75677 17.4502
54 2 33.5794 7.82789 17.6107
55 1 34.2562 6.58125 17.5386
56 2 31.4162 6.64823 17.6911
57 1 32.0926 5.40124 17.6285
58 2 29.2525 5.46351 17.7556
59 1 29.9286 4.21622 17.707
60 2 27.0877 4.27428 17.7935
61 1 27.7637 3.0267 17.7625
62 2 24.9222 3.08215 17.7984
63 1 25.5981 1.83426 17.787
64 2 22.7566 1.88942 17.7683
65 1 23.4322 0.641189 17.7772
66 2 20.5916 0.698506 17.7053
67 1 40.8174 12.5543 17.4249
68 2 37.9712 12.6287 17.5461
69 1 38.6523 11.3845 17.4651
70 2 35.8073 11.4574 17.6086
71 1 36.4879 10.213 17.5289
72 2 33.6443 10.2831 17.6829
73 1 34.3241 9.03834 17.6068
74 2 31.4817 9.10464 17.7555
75 1 32.1607 7.85925 17.6867
76 2 29.3188 7.92099 17.8123
77 1 29.9971 6.67495 17.7548
78 2 27.1552 6.73252 17.842
79 1 27.8327 5.48585 17.7993
80 2 24.9907 5.5409 17.8375
81 1 25.6676 4.29358 17.8121
82 2 22.8259 4.34854 17.7965
83 1 23.502 3.10054 17.7898
84 2 20.6614 3.15792 17.7209
85 1 21.3368 1.90926 17.7329
86 2 18.4977 1.97092 17.618
87 1 19.1724 0.721714 17.6469
88 2 16.3346 0.788474 17.4998
89 1 38.7163 13.838 17.5619
90 2 35.8673 13.9096 17.6869
91 1 36.552 12.6672 17.6139
92 2 33.7045 12.7365 17.7534
93 1 34.3884 11.4936 17.6828
94 2 31.5425 11.5594 17.8213
95 1 32.2253 10.3158 17.7555
96 2 29.3808 10.3773 17.8754
97 1 30.0623 9.13277 17.8175
98 2 27.2188 9.19005 17.9026
99 1 27.8989 7.94454 17.8558
100 2 25.0562 7.99919 17.8946
101 1 25.7349 6.75272 17.8614
102 2 22.893 6.80729 17.848
103 1 23.5705 5.55985 17.8301
104 2 20.7299 5.61702 17.764
105 1 21.4061 4.36862 17.7624
106 2 18.5672 4.43038 17.6497
107 1 19.2423 3.18113 17.6635
108 2 16.4049 3.24827 17.5177
109 1 17.0792 1.9984 17.5442
110 2 14.2424 2.07058 17.3834
111 1 14.9164 0.820348 17.4186
112 2 12.079 0.89659 17.2611
113 1 38.7756 16.2894 17.6531
114 2 35.9221 16.3601 17.7492
115 1 36.6112 15.1193 17.6918
116 2 33.7593 15.1882 17.8072
117 1 34.4476 13.947 17.7514
118 2 31.5978 14.0128 17.872
119 1 32.2849 12.7709 17.819
120 2 29.4373 12.8326 17.9274
121 1 30.1227 11.5896 17.8791
122 2 27.2772 11.6471 17.9584
123 1 27.9606 10.4028 17.9169
124 2 25.117 10.4574 17.9543
125 1 25.7984 9.21186 17.9218
126 2 22.9565 9.2661 17.9098
127 1 23.6358 8.01931 17.8882
128 2 20.7957 8.07611 17.8248
129 1 21.4732 6.82814 17.8152
130 2 18.6348 6.88969 17.7053
131 1 19.3108 5.64067 17.7078
132 2 16.4739 5.7079 17.5635
133 1 17.1488 4.45804 17.5765
134 2 14.3125 4.53059 17.4161
135 1 14.9867 3.28016 17.4367
136 2 12.15 3.35689 17.2789
137 1 12.824 2.10614 17.304
138 2 9.98601 2.18577 17.1635
139 1 10.6601 0.934857 17.1905
140 2 7.82059 1.01627 17.0755
141 1 36.6654 17.5698 17.7507
142 2 33.8096 17.6386 17.8333
143 1 34.5016 16.3987 17.7992
144 2 31.6481 16.4651 17.8942
145 1 32.339 15.2244 17.8617
146 2 29.4883 15.2871 17.9528
147 1 30.1775 14.0454 17.9225
148 2 27.3299 14.104 17.9922
149 1 28.0168 12.8609 17.9651
150 2 25.1724 12.9161 17.999
151 1 25.8566 11.6714 17.9764
152 2 23.0151 11.7257 17.9653
153 1 23.6966 10.4795 17.9485
154 2 20.8575 10.5359 17.8888
155 1 21.5366 9.28838 17.8787
156 2 18.6995 9.34945 17.7733
157 1 19.3765 8.1007 17.7703
158 2 16.5408 8.16763 17.6297
159 1 17.2165 6.91793 17.6332
160 2 14.3812 6.99049 17.4744
161 1 15.0559 5.74011 17.4828
162 2 12.2201 5.81711 17.325
163 1 12.8943 4.56629 17.3365
164 2 10.057 4.64629 17.1951
165 1 10.7312 3.39522 17.208
166 2 7.89231 3.47701 17.0924
167 1 8.56647 2.2258 17.1057
168 2 5.72623 2.30857 17.0192
169 1 6.40044 1.05728 17.0323
170 2 3.55926 1.14056 16.975
171 1 36.7158 20.0188 17.7831
172 2 33.8577 20.0881 17.8267
173 1 34.5516 18.8488 17.8179
174 2 31.6956 18.9163 17.881
175 1 32.3886 17.6764 17.8733
176 2 29.5357 17.741 17.9416
177 1 30.2272 16.5 17.9346
178 2 27.3781 16.5607 17.9912
179 1 28.0674 15.3184 17.9848
180 2 25.2226 15.3755 18.0137
181 1 25.9091 14.1314 18.0082
182 2 23.0684 14.1868 17.9982
183 1 23.7519 12.941 17.9938
184 2 20.9145 12.9975 17.9396
185 1 21.5951 11.7502 17.9366
186 2 18.7601 11.8107 17.839
187 1 19.4383 10.5621 17.8374
188 2 16.6046 10.6283 17.7046
189 1 17.2811 9.37869 17.704
190 2 14.4476 9.4507 17.5508
191 1 15.1229 8.20045 17.5507
192 2 12.2884 8.27727 17.3953
193 1 12.9632 7.02656 17.3952
194 2 10.127 7.10666 17.2539
195 1 10.8014 5.85565 17.2537
196 2 7.96333 5.93766 17.1371
197 1 8.63763 4.68645 17.1368
198 2 5.79799 4.76943 17.0494
199 1 6.47224 3.5181 17.0489
200 2 3.63147 3.60154 16.9911
201 1 4.30571 2.35014 16.9905
202 2 1.46426 2.43377 16.9609
203 1 2.13848 1.18234 16.9602
204 2 -0.703245 1.266 16.9577
205 1 48.9861 0.0145816 16.9569
206 2 46.1445 0.0981355 16.9811
207 1 34.5998 21.2978 17.8045
208 2 31.7432 21.367 17.8312
209 1 32.4361 20.1271 17.8493
210 2 29.5825 20.1941 17.8904
211 1 30.2742 18.9533 17.9087
212 2 27.4246 19.0172 17.9487
213 1 28.1145 17.7751 17.9662
214 2 25.2698 17.8354 17.9887
215 1 25.9572 16.5916 18.0043
216 2 23.1176 16.6494 17.9961
217 1 23.802 15.4038 18.0092
218 2 20.9668 15.4614 17.963
219 1 21.6484 14.2141 17.9728
220 2 18.816 14.2744 17.8875
221 1 19.4952 13.0258 17.8933
222 2 16.6643 13.0909 17.7743
223 1 17.3416 11.8414 17.7752
224 2 14.5106 11.9121 17.6341
225 1 15.1866 10.662 17.6299
226 2 12.3543 10.7379 17.4827
227 1 13.0296 9.48732 17.4741
228 2 10.1951 9.56696 17.3366
229 1 10.8699 8.31615 17.3248
230 2 8.03314 8.39805 17.2091
231 1 8.70772 7.14704 17.1954
232 2 5.86899 7.23004 17.1075
233 1 6.5434 5.97889 17.0932
234 2 3.70324 6.06235 17.0348
235 1 4.37756 4.81108 17.0204
236 2 1.53648 4.89468 16.9906
237 1 2.21074 3.64336 16.9763
238 2 -0.630809 3.72694 16.9738
239 1 0.0434072 2.4756 16.9597
240 2 46.2169 2.55904 16.9839
241 1 34.649 23.7464 17.7602
242 2 31.7937 23.8174 17.7484
243 1 32.4845 22.5768 17.791
244 2 29.6317 22.6466 17.8015
245 1 30.3216 21.4054 17.8442
246 2 27.4726 21.4729 17.8645
247 1 28.1612 20.2306 17.9058
248 2 25.3172 20.2951 17.9203
249 1 26.0037 19.0513 17.9582
250 2 23.1653 19.1128 17.9524
251 1 23.8493 17.8672 17.9852
252 2 21.016 17.9273 17.9495
253 1 21.6976 16.6799 17.9754
254 2 18.868 16.741 17.9067
255 1 19.5475 15.4922 17.9239
256 2 16.7196 15.5566 17.8251
257 1 17.3974 14.3068 17.8323
258 2 14.5695 14.376 17.7113
259 1 15.2462 13.1257 17.7078
260 2 12.4166 13.1999 17.577
261 1 13.0925 11.9494 17.5635
262 2 10.2605 12.0277 17.4369
263 1 10.9359 10.7772 17.4158
264 2 8.10102 10.8583 17.3055
265 1 8.77601 9.60762 17.2795
266 2 5.93868 9.69025 17.1935
267 1 6.61339 8.43946 17.1653
268 2 3.77418 8.5227 17.107
269 1 4.44869 7.2718 17.0783
270 2 1.6082 7.35519 17.0484
271 1 2.2826 6.10421 17.0199
272 2 -0.558649 6.18754 17.0175
273 1 0.115691 4.93652 16.9894
274 2 -2.72586 5.01966 17.0141
275 1 -2.05159 3.76864 16.986
276 2 44.1222 3.85147 17.0381
277 1 32.5362 25.0264 17.7032
278 2 29.6854 25.0988 17.6827
279 1 30.3722 23.8567 17.7458
280 2 27.5246 23.9279 17.7444
281 1 28.2104 22.6849 17.8063
282 2 25.3674 22.7539 17.8112
283 1 26.0517 21.5096 17.8695
284 2 23.2142 21.5759 17.8662
285 1 23.8967 20.33 17.918
286 2 21.0646 20.394 17.8951
287 1 21.7453 19.1464 17.9375
288 2 18.9176 19.2096 17.8893
289 1 19.5966 17.9605 17.9198
290 2 16.7715 18.0252 17.8466
291 1 17.4493 16.7751 17.863
292 2 14.6245 16.843 17.7697
293 1 15.3014 15.5924 17.7707
294 2 12.4751 15.6644 17.6655
295 1 13.1514 14.4138 17.6514
296 2 10.3225 14.49 17.5447
297 1 10.9983 13.2395 17.5178
298 2 8.16615 13.3189 17.4204
299 1 8.84159 12.0686 17.3843
300 2 6.00637 12.1501 17.305
301 1 6.68149 10.8999 17.2637
302 2 3.84372 10.9824 17.208
303 1 4.51859 9.73211 17.1648
304 2 1.67898 9.81497 17.1355
305 1 2.35368 8.5646 17.0921
306 2 -0.487116 8.64742 17.0901
307 1 0.187505 7.397 17.0472
308 2 -2.65392 7.47961 17.0726
309 1 -1.97936 6.22918 17.03
310 2 44.1943 6.31145 17.0831
311 1 32.5926 27.4766 17.5945
312 2 29.7445 27.5514 17.5464
313 1 30.4276 26.3079 17.6229
314 2 27.5818 26.3823 17.6007
315 1 28.2643 25.1382 17.6766
316 2 25.4222 25.2114 17.6709
317 1 26.1038 23.9664 17.7442
318 2 23.2666 24.0375 17.7428
319 1 23.947 22.7913 17.81
320 2 21.1151 22.8599 17.8008
321 1 21.7942 21.6122 17.858
322 2 18.9671 21.6788 17.833
323 1 19.6452 20.4296 17.8763
324 2 16.8214 20.4958 17.8328
325 1 17.4987 19.2454 17.8595
326 2 14.6763 19.3129 17.7994
327 1 15.353 18.0619 17.8075
328 2 12.5298 18.1321 17.7356
329 1 13.2062 16.8811 17.7247
330 2 10.3806 16.9547 17.6472
331 1 11.0567 15.704 17.6187
332 2 8.22784 15.7809 17.5434
333 1 8.90371 14.5308 17.5009
334 2 6.07123 14.6102 17.4354
335 1 6.74686 13.3605 17.3837
336 2 3.91112 13.4415 17.335
337 1 4.58653 12.192 17.2785
338 2 1.74819 12.2738 17.2518
339 1 2.42344 11.0243 17.1939
340 2 -0.416741 11.1062 17.1923
341 1 0.258439 9.8567 17.1346
342 2 -2.58287 9.93843 17.16
343 1 -1.90772 8.68895 17.1028
344 2 -4.74949 8.77031 17.1564
345 1 -4.0744 7.52088 17.0993
346 2 42.0991 7.60172 17.1816
347 1 30.4883 28.7598 17.4887
348 2 27.6441 28.8368 17.4494
349 1 28.3236 27.5914 17.5307
350 2 25.4821 27.668 17.5153
351 1 26.1611 26.4221 17.5952
352 2 23.3235 26.4973 17.5947
353 1 24.0018 25.2506 17.6704
354 2 21.1689 25.3238 17.6744
355 1 21.8466 24.076 17.7414
356 2 19.0185 24.1468 17.7404
357 1 19.6955 22.8976 17.7941
358 2 16.8714 22.9666 17.7825
359 1 17.548 21.7162 17.8188
360 2 14.7263 21.7846 17.7952
361 1 15.4027 20.5334 17.8114
362 2 12.5815 20.6027 17.7776
363 1 13.2578 19.3513 17.7725
364 2 10.4351 19.4225 17.7312
365 1 11.1114 18.1715 17.7055
366 2 8.28567 18.2453 17.6605
367 1 8.96195 16.9951 17.6167
368 2 6.13251 17.0714 17.5731
369 1 6.80876 15.8221 17.5157
370 2 3.97545 15.9006 17.4798
371 1 4.65167 14.6518 17.414
372 2 1.81491 14.7316 17.3926
373 1 2.49111 13.4832 17.3228
374 2 -0.34836 13.5636 17.3218
375 1 0.327855 12.3153 17.2511
376 2 -2.51347 12.3957 17.275
377 1 -1.83721 11.1475 17.2047
378 2 -4.67954 11.2276 17.2565
379 1 -4.00326 9.9795 17.1864
380 2 42.1694 10.059 17.2677
381 1 30.5535 31.2134 17.3576
382 2 27.7104 31.2924 17.3068
383 1 28.3877 30.0455 17.3847
384 2 25.5464 30.1245 17.3618
385 1 26.2234 28.8774 17.4396
386 2 23.3849 28.9559 17.4391
387 1 24.0616 27.7084 17.5149
388 2 21.2269 27.7855 17.5293
389 1 21.9034 26.5374 17.5993
390 2 19.073 26.6123 17.62
391 1 19.7492 25.3633 17.6792
392 2 16.9231 25.4358 17.6988
393 1 17.5992 24.1857 17.7423
394 2 14.7764 24.2562 17.7561
395 1 15.4525 23.0052 17.7799
396 2 12.6314 23.0747 17.7861
397 1 13.3077 21.8233 17.7882
398 2 10.4865 21.8929 17.7866
399 1 11.1629 20.6418 17.7668
400 2 8.33968 20.7125 17.7577
401 1 9.01642 19.4622 17.7176
402 2 6.18971 19.5348 17.7027
403 1 6.86676 18.2856 17.6458
404 2 4.03585 18.3605 17.6288
405 1 4.7132 17.1123 17.5598
406 2 1.87807 17.1891 17.5474
407 1 2.55572 15.9417 17.4713
408 2 -0.283099 16.0197 17.4713
409 1 0.394809 14.7728 17.3923
410 2 -2.4468 14.8511 17.4124
411 1 -1.76868 13.6046 17.3329
412 2 -4.61206 13.6828 17.3789
413 1 -3.93379 12.4365 17.2997
414 2 -6.77792 12.5143 17.375
415 1 -6.09963 11.2681 17.2959
416 2 40.0716 11.3452 17.4012
417 1 28.4555 32.5011 17.2529
418 2 25.614 32.5819 17.2254
419 1 26.2898 31.3335 17.294
420 2 23.4501 31.4141 17.293
421 1 24.1258 30.1657 17.3613
422 2 21.289 30.2456 17.3825
423 1 21.9646 28.9969 17.448
424 2 19.1314 29.0754 17.4854
425 1 19.807 27.8262 17.5439
426 2 16.9778 27.9024 17.5903
427 1 17.6535 26.6525 17.6366
428 2 14.8281 26.7261 17.6853
429 1 15.504 25.4755 17.7146
430 2 12.6813 25.5465 17.7601
431 1 13.3576 24.2954 17.7692
432 2 10.5361 24.3647 17.8076
433 1 11.2128 23.1136 17.7955
434 2 8.39054 23.1822 17.8241
435 1 9.0678 21.9318 17.7917
436 2 6.24287 22.0009 17.8089
437 1 6.92085 20.7517 17.7585
438 2 4.0918 20.8224 17.7649
439 1 4.77058 19.5744 17.7002
440 2 1.93675 19.6472 17.7002
441 1 2.61633 18.4006 17.6258
442 2 -0.222126 18.4751 17.6276
443 1 0.458164 17.2295 17.5479
444 2 -2.38413 17.3051 17.5615
445 1 -1.7033 16.0601 17.4799
446 2 -4.5483 16.1361 17.5145
447 1 -3.86712 14.8915 17.4328
448 2 -6.7136 14.9674 17.4949
449 1 -6.03225 13.7231 17.4136
450 2 40.1361 13.7984 17.506
451 1 28.5255 34.9584 17.1446
452 2 25.6839 35.0404 17.115
453 1 26.3589 33.7908 17.1704
454 2 23.5183 33.8729 17.1688
455 1 24.1934 32.6234 17.2246
456 2 21.3546 32.7052 17.2493
457 1 22.0297 31.4557 17.3045
458 2 19.1937 31.5366 17.3522
459 1 19.8689 30.2871 17.4039
460 2 17.0363 30.3663 17.4698
461 1 17.7118 29.1165 17.5138
462 2 14.8828 29.1931 17.5908
463 1 15.5586 27.9429 17.6222
464 2 12.733 28.0163 17.7025
465 1 13.4092 26.7657 17.7172
466 2 10.5858 26.836 17.7932
467 1 11.2626 25.5853 17.7891
468 2 8.4397 25.653 17.8542
469 1 9.11741 24.4028 17.8315
470 2 6.29283 24.4692 17.8809
471 1 6.97171 23.22 17.8413
472 2 4.14351 23.2866 17.8725
473 1 4.82378 22.0389 17.8188
474 2 1.99061 22.107 17.8333
475 1 2.67235 20.8609 17.7688
476 2 -0.166166 20.9311 17.7733
477 1 0.516913 19.6864 17.702
478 2 -2.32641 19.7584 17.7071
479 1 -1.64231 18.5148 17.6325
480 2 -4.48931 18.5879 17.6504
481 1 -3.80454 17.345 17.5749
482 2 -6.65388 17.4186 17.6158
483 1 -5.96873 16.1761 17.5407
484 2 -8.81908 16.2496 17.6105
485 1 -8.1338 15.0073 17.5361
486 2 38.0312 15.0802 17.6359
487 1 26.4297 36.2495 17.0748
488 2 23.5884 36.3324 17.0727
489 1 24.2631 35.0821 17.114
490 2 21.423 35.1648 17.1397
491 1 22.0977 33.9146 17.1813
492 2 19.2594 33.9969 17.2339
493 1 19.9344 32.7469 17.2745
494 2 17.0987 32.8281 17.3517
495 1 17.7739 31.5781 17.3883
496 2 14.9415 31.6573 17.4849
497 1 15.617 30.4072 17.5138
498 2 12.7879 30.4833 17.6214
499 1 13.4639 29.2331 17.6385
500 2 10.6376 29.3053 17.7466
501 1 11.3143 28.0551 17.7493
502 2 8.48924 28.1232 17.8471
503 1 9.1671 26.8734 17.8347
504 2 6.34136 26.9384 17.9137
505 1 7.0208 25.6895 17.887
506 2 4.19223 25.7529 17.9418
507 1 4.87362 24.5053 17.9031
508 2 2.04038 24.569 17.9324
509 1 2.72393 23.323 17.884
510 2 -0.114971 23.3886 17.8919
511 1 0.570671 22.1443 17.8367
512 2 -2.27375 22.2122 17.833
513 1 -1.58646 20.9693 17.7739
514 2 -4.43538 21.0392 17.7719
515 1 -3.74702 19.7974 17.7114
516 2 -6.59908 19.8686 17.7247
517 1 -5.91009 18.6275 17.6643
518 2 -8.76391 18.6992 17.7028
519 1 -8.07461 17.4584 17.6434
520 2 38.0863 17.53 17.7116
521 1 26.5015 38.7093 17.0086
522 2 23.6598 38.7926 17.0062
523 1 24.3343 37.5417 17.0329
524 2 21.4933 37.625 17.0582
525 1 22.1678 36.3742 17.0854
526 2 19.328 36.4572 17.1391
527 1 20.0026 35.2065 17.1663
528 2 17.1647 35.2889 17.2481
529 1 17.8395 34.0384 17.2739
530 2 15.0042 34.1193 17.381
531 1 15.6793 32.8691 17.4031
532 2 12.847 32.9474 17.5283
533 1 13.5226 31.6973 17.5439
534 2 10.693 31.7717 17.6757
535 1 11.3693 30.5218 17.6823
536 2 8.54136 30.5914 17.8068
537 1 9.21888 29.342 17.8031
538 2 6.39092 29.407 17.9076
539 1 7.07025 28.1583 17.8939
540 2 4.24025 28.2199 17.9694
541 1 4.92194 26.9724 17.947
542 2 2.08794 27.0326 17.9898
543 1 2.77237 25.7867 17.9604
544 2 -0.0670404 25.8478 17.9721
545 1 0.620151 24.6037 17.9376
546 2 -2.22499 24.6672 17.926
547 1 -1.53552 23.4247 17.8882
548 2 -4.38564 23.491 17.8663
549 1 -3.6946 22.2498 17.8271
550 2 -6.54847 22.3184 17.8104
551 1 -5.8565 21.078 17.7712
552 2 -8.7128 21.148 17.7732
553 1 -8.02033 19.9082 17.7351
554 2 -10.8777 19.9787 17.7643
555 1 -10.1851 18.7392 17.7276
556 2 35.9729 18.8094 17.7861
557 1 24.4062 40.0021 16.981
558 2 21.5648 40.0856 17.0057
559 1 22.2391 38.8344 17.0187
560 2 19.3984 38.9177 17.0716
561 1 20.0728 37.6666 17.0849
562 2 17.2335 37.7494 17.1672
563 1 17.9079 36.4985 17.1802
564 2 15.0706 36.5803 17.2909
565 1 15.7452 35.3297 17.3029
566 2 12.9104 35.4093 17.4368
567 1 13.5853 34.1591 17.4464
568 2 10.7529 34.2353 17.5928
569 1 11.4285 32.9855 17.5988
570 2 8.59768 33.0569 17.7423
571 1 9.27441 31.8076 17.7438
572 2 6.44384 31.8736 17.8681
573 1 7.12236 30.6251 17.8651
574 2 4.29031 30.6863 17.9575
575 1 4.9713 29.4388 17.9504
576 2 2.13607 29.4969 18.0044
577 1 2.82005 28.2509 17.9941
578 2 -0.0198049 28.3085 18.0094
579 1 0.667342 27.0642 17.9968
580 2 -2.17784 27.1238 17.9788
581 1 -1.4879 25.8811 17.9648
582 2 -4.33804 25.9439 17.9251
583 1 -3.64607 24.7026 17.9105
584 2 -6.50021 24.7687 17.865
585 1 -5.80696 23.5285 17.8506
586 2 -8.66397 23.5969 17.8152
587 1 -7.97003 22.3574 17.802
588 2 -10.8287 22.4271 17.7891
589 1 -10.1345 21.1879 17.7774
590 2 36.0216 21.2579 17.7932
591 1 22.3111 41.2951 16.9805
592 2 19.47 41.3784 17.0324
593 1 20.1442 40.1271 17.0318
594 2 17.3041 40.21 17.1129
595 1 17.9783 38.9589 17.1124
596 2 15.1397 39.0408 17.2228
597 1 15.8139 37.7899 17.2226
598 2 12.9773 37.8702 17.3588
599 1 13.6517 36.6196 17.3589
600 2 10.8171 36.697 17.5117
601 1 11.4919 35.4469 17.5124
602 2 8.65876 35.5198 17.6668
603 1 9.33449 34.2705 17.6683
604 2 6.50152 34.3378 17.806
605 1 7.17881 33.0892 17.8089
606 2 4.34466 33.1509 17.914
607 1 5.02419 31.9033 17.9184
608 2 2.18758 31.9607 17.9813
609 1 2.8699 30.7144 17.9873
610 2 0.029724 30.77 18.0055
611 1 0.715158 29.525 18.013
612 2 -2.12935 29.5818 17.9904
613 1 -1.44093 28.3384 17.9992
614 2 -4.28983 28.3984 17.9452
615 1 -3.59904 27.1564 17.9552
616 2 -6.45173 27.2202 17.8846
617 1 -5.75936 25.9795 17.8959
618 2 -8.61503 26.0465 17.8258
619 1 -7.92174 24.8065 17.8384
620 2 -10.7794 24.8757 17.7842
621 1 -10.0857 23.6362 17.7983
622 2 -12.9444 23.7064 17.7702
623 1 -12.2506 22.4671 17.786
624 2 33.9063 22.5373 17.7873
625 1 18.0498 41.4195 17.0726
626 2 15.2105 41.5013 17.1816
627 1 15.8844 40.2503 17.1677
628 2 13.0468 40.3306 17.3033
629 1 13.7207 39.0799 17.291
630 2 10.8847 39.1575 17.4454
631 1 11.5589 37.9073 17.4362
632 2 8.72403 37.9809 17.5952
633 1 9.39885 36.7314 17.591
634 2 6.56404 36.7997 17.7362
635 1 7.24008 35.5509 17.7385
636 2 4.40417 35.6134 17.852
637 1 5.08201 34.3656 17.8616
638 2 2.24416 34.4232 17.931
639 1 2.92427 33.1764 17.9477
640 2 0.0838598 33.2313 17.9685
641 1 0.766567 31.9856 17.9913
642 2 -2.0769 32.0407 17.9655
643 1 -1.39152 30.7963 17.9934
644 2 -4.2383 30.8543 17.9284
645 1 -3.55054 29.6112 17.9605
646 2 -6.40046 29.6733 17.8695
647 1 -5.71093 28.4314 17.9045
648 2 -8.56354 28.4974 17.8046
649 1 -7.87291 27.2564 17.8417
650 2 -10.7276 27.3254 17.7502
651 1 -10.0364 26.0849 17.789
652 2 -12.8925 26.1555 17.7191
653 1 -12.2011 24.9153 17.7594
654 2 33.9577 24.9866 17.7185
655 1 13.7914 41.5402 17.2492
656 2 10.9546 41.6177 17.4031
657 1 11.6283 40.3675 17.3808
658 2 8.79237 40.4412 17.541
659 1 9.46651 39.1915 17.5259
660 2 6.63047 39.2602 17.6745
661 1 7.30549 38.0112 17.6696
662 2 4.46837 38.0744 17.788
663 1 5.14472 36.8262 17.795
664 2 2.30593 36.8843 17.8692
665 1 2.98395 35.637 17.8885
666 2 0.143351 35.6919 17.9118
667 1 0.823263 34.4455 17.9424
668 2 -2.01921 34.5 17.9149
669 1 -1.3373 33.2545 17.9553
670 2 -4.18178 33.3114 17.8828
671 1 -3.49795 32.0669 17.9309
672 2 -6.34453 32.128 17.825
673 1 -5.65905 30.8846 17.8788
674 2 -8.5077 30.95 17.7558
675 1 -7.82106 29.7075 17.8133
676 2 -10.6716 29.7765 17.6911
677 1 -9.98427 28.5346 17.7507
678 2 -12.8363 28.6059 17.645
679 1 -12.1487 27.3643 17.7058
680 2 -15.0015 27.4368 17.6269
681 1 -14.3139 26.1952 17.6888
682 2 31.8488 26.2681 17.6404
683 1 9.53634 41.6514 17.4838
684 2 6.69953 41.7202 17.634
685 1 7.37391 40.471 17.6164
686 2 4.53602 40.5345 17.7378
687 1 5.21132 39.286 17.7352
688 2 2.37192 39.3445 17.813
689 1 3.04836 38.0967 17.8265
690 2 0.207602 38.1519 17.8526
691 1 0.885268 36.9048 17.8819
692 2 -1.95649 36.9593 17.8547
693 1 -1.27756 35.7128 17.8982
694 2 -4.12013 35.7694 17.8221
695 1 -3.43996 34.5235 17.8776
696 2 -6.28348 34.5842 17.7626
697 1 -5.60212 33.3391 17.8272
698 2 -8.44687 33.4044 17.6886
699 1 -7.76451 32.1601 17.759
700 2 -10.6107 32.2294 17.6151
701 1 -9.92765 30.9857 17.6886
702 2 -12.7753 31.0579 17.556
703 1 -12.0918 29.8146 17.6309
704 2 -14.9406 29.8884 17.5219
705 1 -14.257 28.6452 17.5974
706 2 31.9091 28.7198 17.5185
707 1 5.28049 41.7456 17.6959
708 2 2.44068 41.8042 17.7769
709 1 3.1162 40.5561 17.7779
710 2 0.275286 40.6117 17.8071
711 1 0.951507 39.3639 17.827
712 2 -1.88988 39.4188 17.8018
713 1 -1.21302 38.1714 17.8395
714 2 -4.05436 38.2281 17.7629
715 1 -3.37689 36.981 17.8163
716 2 -6.21815 37.0417 17.6974
717 1 -5.54007 35.7951 17.7632
718 2 -8.38167 35.8605 17.6165
719 1 -7.70293 34.6145 17.6906
720 2 -10.5455 34.6843 17.5341
721 1 -9.86615 33.4388 17.6127
722 2 -12.71 33.5118 17.4636
723 1 -12.0302 32.2667 17.5439
724 2 -14.8754 32.3418 17.4152
725 1 -14.1953 31.0968 17.4959
726 2 -17.0412 31.1731 17.3957
727 1 -16.3611 29.9281 17.4765
728 2 29.8084 30.005 17.4076
729 1 1.02045 41.8232 17.7925
730 2 -1.82087 41.8783 17.7703
731 1 -1.14509 40.6303 17.7953
732 2 -3.98585 40.6873 17.7206
733 1 -3.30999 39.4394 17.7638
734 2 -6.14991 39.5003 17.6448
735 1 -5.47394 38.2524 17.703
736 2 -8.31344 38.3182 17.5539
737 1 -7.6372 37.0706 17.6228
738 2 -10.4771 37.141 17.4612
739 1 -9.80049 35.8938 17.5362
740 2 -12.6415 35.9678 17.3794
741 1 -11.9645 34.7209 17.4569
742 2 -14.8069 34.7973 17.3182
743 1 -14.1295 33.5505 17.396
744 2 -16.9729 33.6284 17.2841
745 1 -16.2954 32.3816 17.3616
746 2 29.8761 32.4602 17.2801
747 1 -3.24078 41.8983 17.7335
748 2 -6.0801 41.9597 17.6163
749 1 -5.40518 40.7109 17.6611
750 2 -8.24352 40.7772 17.5125
751 1 -7.56869 39.5284 17.5697
752 2 -10.407 39.5994 17.4075
753 1 -9.73199 38.3508 17.4722
754 2 -12.5712 38.4257 17.3136
755 1 -11.8959 37.1772 17.3817
756 2 -14.7364 37.2547 17.24
757 1 -14.0607 36.0063 17.3088
758 2 -16.9025 36.0855 17.1924
759 1 -16.2266 34.8372 17.2607
760 2 -19.0691 34.9173 17.1737
761 1 -18.3932 33.6689 17.2415
762 2 27.7796 33.7495 17.1848
763 1 -7.4987 41.9873 17.5418
764 2 -10.3361 42.0589 17.3804
765 1 -9.66189 40.8093 17.431
766 2 -12.5 40.8849 17.2729
767 1 -11.8256 39.6352 17.3278
768 2 -14.6649 39.7137 17.1864
769 1 -13.9903 38.4641 17.2424
770 2 -16.831 38.5443 17.1259
771 1 -16.1561 37.2947 17.1815
772 2 -18.9977 37.3758 17.0934
773 1 -18.3227 36.1262 17.1484
774 2 27.8505 36.208 17.0898
775 1 -11.7546 42.0946 17.301
776 2 -14.5932 42.1737 17.1605
777 1 -13.919 40.9232 17.2022
778 2 -16.759 41.0041 17.0867
779 1 -16.0846 39.7537 17.1283
780 2 -18.9257 39.8356 17.0411
781 1 -18.2512 38.5851 17.082
782 2 -21.0929 38.6676 17.0236
783 1 -20.4183 37.4172 17.0641
784 2 25.7551 37.4999 17.0341
785 1 -16.0128 42.2137 17.1028
786 2 -18.8535 42.2961 17.0164
787 1 -18.1792 41.0451 17.0433
788 2 -21.0207 41.1281 16.9856
789 1 -20.3463 39.877 17.012
790 2 25.8271 39.9603 16.9823
791 1 -20.2741 42.3376 16.9877
792 2 -23.1157 42.4211 16.9582
793 1 -22.4415 41.1698 16.9708
794 2 23.7319 41.2534 16.9683
795 3 46.8776 1.14231 20.8
796 4 44.0386 1.04855 20.8
797 3 46.7956 3.60109 20.8
798 4 43.957 3.50755 20.8
799 3 44.7073 2.30147 20.8
800 4 41.8688 2.20901 20.8
801 3 42.619 1.00279 20.8
802 4 39.7804 0.912257 20.8
803 3 44.6257 4.76046 20.8
804 4 41.7879 4.66848 20.8
805 3 42.5374 3.46183 20.8
806 4 39.6997 3.37165 20.8
807 3 40.4492 2.1648 20.8
808 4 37.6114 2.07774 20.8
809 3 38.3608 0.870512 20.8
810 4 35.5228 0.788541 20.8
811 3 44.5454 7.21973 20.8
812 4 41.7086 7.12877 20.8
813 3 42.4567 5.92125 20.8
814 4 39.6201 5.83193 20.8
815 3 40.3683 4.62428 20.8
816 4 37.5317 4.53787 20.8
817 3 38.2801 3.32998 20.8
818 4 35.4434 3.24836 20.8
819 3 36.1918 2.04004 20.8
820 4 33.3545 1.96549 20.8
821 3 34.1032 0.756535 20.8
822 4 31.2647 0.691155 20.8
823 3 42.378 8.38134 20.8
824 4 39.5435 8.29364 20.8
825 3 40.2891 7.08444 20.8
826 4 37.4545 6.9994 20.8
827 3 38.2005 5.79013 20.8
828 4 35.3656 5.70948 20.8
829 3 36.1122 4.50003 20.8
830 4 33.2766 4.42599 20.8
831 3 34.0238 3.21622 20.8
832 4 31.1869 3.15088 20.8
833 3 31.935 1.94065 20.8
834 4 29.0964 1.88506 20.8
835 3 29.8453 0.674329 20.8
836 4 27.005 0.627578 20.8
837 3 42.3029 10.8428 20.8
838 4 39.4721 10.7577 20.8
839 3 40.2133 9.54594 20.8
840 4 37.382 9.4632 20.8
841 3 38.124 8.2515 20.8
842 4 35.292 8.17273 20.8
843 3 36.0349 6.9611 20.8
844 4 33.2018 6.88833 20.8
845 3 33.946 5.67677 20.8
846 4 31.1113 5.61209 20.8
847 3 31.857 4.40055 20.8
848 4 29.0202 4.34513 20.8
849 3 29.7675 3.13356 20.8
850 4 26.9284 3.08668 20.8
851 3 27.677 1.87517 20.8
852 4 24.8363 1.83384 20.8
853 3 25.5857 0.62259 20.8
854 4 22.7442 0.582133 20.8
855 3 40.143 12.0098 20.8
856 4 37.3169 11.9302 20.8
857 3 38.0528 10.7151 20.8
858 4 35.2253 10.6391 20.8
859 3 35.9625 9.42416 20.8
860 4 33.1334 9.35354 20.8
861 3 33.8724 8.13898 20.8
862 4 31.0409 8.07567 20.8
863 3 31.7822 6.86169 20.8
864 4 28.9479 6.807 20.8
865 3 29.6917 5.5936 20.8
866 4 26.8544 5.54706 20.8
867 3 27.6006 4.33431 20.8
868 4 24.7609 4.29315 20.8
869 3 25.5089 3.08119 20.8
870 4 22.6679 3.04088 20.8
871 3 23.4169 1.82987 20.8
872 4 20.5758 1.78545 20.8
873 3 21.3249 0.575436 20.8
874 4 18.4848 0.522979 20.8
875 3 40.0798 14.4774 20.8
876 4 37.2604 14.4013 20.8
877 3 37.9891 13.1822 20.8
878 4 35.1677 13.1094 20.8
879 3 35.8977 11.8904 20.8
880 4 33.0738 11.8225 20.8
881 3 33.8058 10.604 20.8
882 4 30.9787 10.5425 20.8
883 3 31.7137 9.32502 20.8
884 4 28.8827 9.27142 20.8
885 3 29.6212 8.0552 20.8
886 4 26.7862 8.00926 20.8
887 3 27.5281 6.79442 20.8
888 4 24.6897 6.75364 20.8
889 3 25.4347 5.54025 20.8
890 4 22.5942 5.5003 20.8
891 3 23.3412 4.28842 20.8
892 4 20.5 4.24438 20.8
893 3 21.2483 3.03397 20.8
894 4 18.4076 2.98186 20.8
895 3 19.1563 1.77274 20.8
896 4 16.3166 1.71058 20.8
897 3 17.0654 0.502432 20.8
898 4 14.2269 0.43041 20.8
899 3 37.9337 15.6538 20.8
900 4 35.1193 15.5837 20.8
901 3 35.8418 14.3609 20.8
902 4 33.024 14.2952 20.8
903 3 33.7486 13.0728 20.8
904 4 30.9265 13.013 20.8
905 3 31.6542 11.7916 20.8
906 4 28.8269 11.7388 20.8
907 3 29.5588 10.5192 20.8
908 4 26.7262 10.4736 20.8
909 3 27.4626 9.25604 20.8
910 4 24.6253 9.21542 20.8
911 3 25.366 8.00012 20.8
912 4 22.5256 7.96035 20.8
913 3 23.2696 6.74723 20.8
914 4 20.4278 6.70348 20.8
915 3 21.1742 5.49237 20.8
916 4 18.3324 5.44062 20.8
917 3 19.0802 4.23121 20.8
918 4 16.2392 4.16935 20.8
919 3 16.9878 2.96123 20.8
920 4 14.148 2.88935 20.8
921 3 14.897 1.68207 20.8
922 4 12.0581 1.60185 20.8
923 3 12.8074 0.395066 20.8
924 4 9.96902 0.30881 20.8
925 3 37.8861 18.1301 20.8
926 4 35.0778 18.0618 20.8
927 3 35.7945 16.836 20.8
928 4 32.9824 16.7712 20.8
929 3 33.7009 15.5458 20.8
930 4 30.8835 15.4863 20.8
931 3 31.6049 14.2619 20.8
932 4 28.7811 14.2089 20.8
933 3 29.5066 12.986 20.8
934 4 26.6759 12.9397 20.8
935 3 27.4066 11.7195 20.8
936 4 24.5696 11.6781 20.8
937 3 25.3056 10.4608 20.8
938 4 22.4641 10.4205 20.8
939 3 23.2046 9.20616 20.8
940 4 20.3609 9.16217 20.8
941 3 21.105 7.9504 20.8
942 4 18.2609 7.89871 20.8
943 3 19.0074 6.68905 20.8
944 4 16.1642 6.62741 20.8
945 3 16.9122 5.41929 20.8
946 4 14.0704 5.34762 20.8
947 3 14.8193 4.14051 20.8
948 4 11.9787 4.06038 20.8
949 3 12.7283 2.85387 20.8
950 4 9.88863 2.76757 20.8
951 3 10.6385 1.56136 20.8
952 4 7.79945 1.47109 20.8
953 3 8.54952 0.265021 20.8
954 4 5.71081 0.172437 20.8
955 3 35.7532 19.315 20.8
956 4 32.9451 19.2494 20.8
957 3 33.6603 18.0226 20.8
958 4 30.8465 17.9614 20.8
959 3 31.5642 16.7354 20.8
960 4 28.7429 16.6801 20.8
961 3 29.4643 15.4556 20.8
962 4 26.6346 15.4067 20.8
963 3 27.3608 14.1845 20.8
964 4 24.523 14.1408 20.8
965 3 25.255 12.922 20.8
966 4 22.4111 12.8799 20.8
967 3 23.1484 11.6646 20.8
968 4 20.3011 11.6195 20.8
969 3 21.0428 10.4073 20.8
970 4 18.1949 10.3552 20.8
971 3 18.9399 9.14548 20.8
972 4 16.0929 9.08388 20.8
973 3 16.8402 7.87597 20.8
974 4 13.9951 7.80455 20.8
975 3 14.7438 6.59775 20.8
976 4 11.9007 6.51789 20.8
977 3 12.6503 5.31169 20.8
978 4 9.80884 5.22558 20.8
979 3 10.5589 4.01968 20.8
980 4 7.71859 3.92949 20.8
981 3 8.46898 2.7237 20.8
982 4 5.62935 2.6311 20.8
983 3 6.37988 1.42534 20.8
984 4 3.5407 1.33142 20.8
985 3 4.29129 0.125653 20.8
986 4 1.45234 0.0311244 20.8
987 3 35.7147 21.7962 20.8
988 4 32.9074 21.7281 20.8
989 3 33.6227 20.5018 20.8
990 4 30.8104 20.4368 20.8
991 3 31.5277 19.2112 20.8
992 4 28.7077 19.1512 20.8
993 3 29.4281 17.9268 20.8
994 4 26.5987 17.8729 20.8
995 3 27.3233 16.6506 20.8
996 4 24.484 16.6022 20.8
997 3 25.2138 15.3828 20.8
998 4 22.3665 15.3372 20.8
999 3 23.1015 14.1214 20.8
1000 4 20.2495 14.0743 20.8
1001 3 20.9892 12.8619 20.8
1002 4 18.1358 12.8089 20.8
1003 3 18.8794 11.5993 20.8
1004 4 16.0271 11.5377 20.8
1005 3 16.7735 10.3302 20.8
1006 4 13.9237 10.2592 20.8
1007 3 14.672 9.05289 20.8
1008 4 11.8251 8.9737 20.8
1009 3 12.5747 7.76793 20.8
1010 4 9.73047 7.68243 20.8
1011 3 10.4807 6.47687 20.8
1012 4 7.6385 6.38713 20.8
1013 3 8.38903 5.18159 20.8
1014 4 5.54823 5.08928 20.8
1015 3 6.29892 3.88371 20.8