ITEM: TIMESTEP
4123
ITEM: NUMBER OF ATOMS
84380
ITEM: BOX BOUNDS xy xz yz pp pp pp
0.0000000000000000e+00 2.4396658456870659e+02 8.1322194856209549e+01
0.0000000000000000e+00 1.4085417327150816e+02 0.0000000000000000e+00
0.0000000000000000e+00 1.0000000000000000e+02 0.0000000000000000e+00
ITEM: ATOMS id type x y z
1 1 81.3135 138.35 50.2207
2 2 84.2049 138.34 50.2145
3 1 83.4864 139.595 50.2207
4 2 86.3779 139.585 50.217
5 1 85.6593 140.839 50.2232
6 2 88.5508 140.829 50.2216
7 1 79.1317 134.602 50.2279
8 2 82.0231 134.592 50.2192
9 1 81.3047 135.846 50.2243
10 2 84.1961 135.836 50.218
11 1 83.4776 137.091 50.2231
12 2 86.3691 137.081 50.2193
13 1 85.6506 138.335 50.2244
14 2 88.5421 138.325 50.2228
15 1 87.8235 139.58 50.228
16 2 90.7151 139.57 50.2282
17 1 89.9965 140.824 50.2335
18 2 92.8882 140.814 50.2352
19 1 76.9498 130.853 50.2407
20 2 79.8411 130.843 50.2299
21 1 79.1228 132.098 50.2345
22 2 82.0141 132.088 50.2257
23 1 81.2958 133.342 50.2301
24 2 84.1872 133.332 50.2236
25 1 83.4687 134.587 50.2278
26 2 86.3602 134.577 50.2237
27 1 85.6417 135.831 50.2279
28 2 88.5333 135.821 50.226
29 1 87.8148 137.076 50.2302
30 2 90.7064 137.066 50.2303
31 1 89.9878 138.32 50.2347
32 2 92.8794 138.31 50.2363
33 1 92.1608 139.564 50.2408
34 2 95.0526 139.554 50.2433
35 1 94.3339 140.809 50.2482
36 2 97.2258 140.798 50.251
37 1 74.7675 127.105 50.2562
38 2 77.6587 127.095 50.2444
39 1 76.9406 128.349 50.2488
40 2 79.8319 128.339 50.2383
41 1 79.1137 129.594 50.2423
42 2 82.005 129.584 50.2336
43 1 81.2867 130.838 50.2374
44 2 84.1781 130.828 50.2307
45 1 83.4598 132.083 50.2343
46 2 86.3512 132.073 50.2298
47 1 85.6328 133.328 50.2333
48 2 88.5243 133.318 50.231
49 1 87.8059 134.572 50.2345
50 2 90.6975 134.562 50.2342
51 1 89.9789 135.816 50.2378
52 2 92.8706 135.806 50.239
53 1 92.152 137.061 50.2428
54 2 95.0437 137.051 50.2451
55 1 94.3251 138.305 50.2493
56 2 97.2169 138.295 50.252
57 1 96.4982 139.549 50.2565
58 2 99.3902 139.539 50.2592
59 1 98.6715 140.793 50.2641
60 2 101.564 140.782 50.2663
61 1 72.5848 123.356 50.2716
62 2 75.4759 123.346 50.2596
63 1 74.758 124.601 50.2644
64 2 77.6492 124.591 50.2531
65 1 76.9312 125.845 50.2573
66 2 79.8225 125.835 50.2472
67 1 79.1044 127.09 50.251
68 2 81.9957 127.08 50.2423
69 1 81.2775 128.335 50.2457
70 2 84.1689 128.325 50.2389
71 1 83.4507 129.579 50.242
72 2 86.3421 129.569 50.2372
73 1 85.6238 130.824 50.2402
74 2 88.5153 130.814 50.2374
75 1 87.7969 132.068 50.2404
76 2 90.6885 132.058 50.2395
77 1 89.97 133.313 50.2425
78 2 92.8616 133.303 50.2432
79 1 92.1431 134.557 50.2465
80 2 95.0348 134.547 50.2483
81 1 94.3162 135.801 50.2519
82 2 97.208 135.791 50.2543
83 1 96.4894 137.045 50.2582
84 2 99.3813 137.035 50.2608
85 1 98.6626 138.289 50.2652
86 2 101.555 138.279 50.2673
87 1 100.836 139.533 50.2721
88 2 103.728 139.522 50.2735
89 1 103.009 140.777 50.2788
90 2 105.902 140.766 50.2791
91 1 70.4012 119.607 50.2848
92 2 73.2924 119.597 50.2732
93 1 72.5747 120.852 50.2787
94 2 75.466 120.842 50.2673
95 1 74.7482 122.097 50.2722
96 2 77.6394 122.087 50.2615
97 1 76.9216 123.341 50.2658
98 2 79.8129 123.332 50.256
99 1 79.0949 124.586 50.2598
100 2 81.9862 124.576 50.2512
101 1 81.2681 125.831 50.2546
102 2 84.1595 125.821 50.2475
103 1 83.4414 127.075 50.2506
104 2 86.3328 127.065 50.2453
105 1 85.6146 128.32 50.2481
106 2 88.5061 128.31 50.2447
107 1 87.7878 129.565 50.2474
108 2 90.6793 129.555 50.2458
109 1 89.9609 130.809 50.2486
110 2 92.8525 130.799 50.2485
111 1 92.1341 132.053 50.2514
112 2 95.0258 132.043 50.2526
113 1 94.3073 133.298 50.2558
114 2 97.199 133.288 50.2577
115 1 96.4805 134.542 50.2612
116 2 99.3723 134.532 50.2634
117 1 98.6537 135.786 50.2673
118 2 101.546 135.776 50.2693
119 1 100.827 137.03 50.2736
120 2 103.719 137.019 50.275
121 1 103 138.273 50.2798
122 2 105.893 138.263 50.2802
123 1 105.174 139.517 50.2855
124 2 108.067 139.505 50.2848
125 1 107.348 140.76 50.2905
126 2 110.241 140.748 50.2886
127 1 68.2165 115.859 50.2947
128 2 71.1078 115.849 50.2838
129 1 70.3905 117.104 50.2901
130 2 73.2817 117.093 50.2793
131 1 72.5643 118.348 50.285
132 2 75.4556 118.338 50.2743
133 1 74.738 119.593 50.2795
134 2 77.6293 119.583 50.2693
135 1 76.9116 120.838 50.2739
136 2 79.8029 120.828 50.2643
137 1 79.0851 122.082 50.2684
138 2 81.9764 122.072 50.2598
139 1 81.2585 123.327 50.2634
140 2 84.1499 123.317 50.2561
141 1 83.4318 124.572 50.2594
142 2 86.3233 124.562 50.2536
143 1 85.6051 125.816 50.2565
144 2 88.4966 125.806 50.2524
145 1 87.7784 127.061 50.2552
146 2 90.6699 127.051 50.2527
147 1 89.9517 128.305 50.2554
148 2 92.8432 128.295 50.2545
149 1 92.1249 129.55 50.2573
150 2 95.0166 129.54 50.2576
151 1 94.2982 130.794 50.2607
152 2 97.1899 130.784 50.2618
153 1 96.4714 132.038 50.2652
154 2 99.3632 132.028 50.2667
155 1 98.6447 133.283 50.2704
156 2 101.537 133.272 50.272
157 1 100.818 134.527 50.2761
158 2 103.71 134.516 50.2772
159 1 102.991 135.77 50.2817
160 2 105.884 135.759 50.282
161 1 105.165 137.014 50.287
162 2 108.058 137.003 50.2863
163 1 107.339 138.257 50.2917
164 2 110.232 138.245 50.2898
165 1 109.513 139.499 50.2956
166 2 112.406 139.487 50.2925
167 1 111.687 140.741 50.2987
168 2 114.581 140.729 50.2944
169 1 66.0301 112.11 50.301
170 2 68.9215 112.1 50.2909
171 1 68.2048 113.355 50.298
172 2 71.0962 113.345 50.2878
173 1 70.3792 114.6 50.2944
174 2 73.2705 114.59 50.2843
175 1 72.5534 115.844 50.2903
176 2 75.4447 115.834 50.2804
177 1 74.7274 117.089 50.2859
178 2 77.6187 117.079 50.2762
179 1 76.9012 118.334 50.2811
180 2 79.7925 118.324 50.2719
181 1 79.0749 119.579 50.2764
182 2 81.9662 119.569 50.2679
183 1 81.2485 120.823 50.2718
184 2 84.1399 120.813 50.2643
185 1 83.422 122.068 50.2679
186 2 86.3134 122.058 50.2616
187 1 85.5955 123.313 50.2649
188 2 88.4869 123.303 50.26
189 1 87.7689 124.557 50.2631
190 2 90.6603 124.547 50.2597
191 1 89.9422 125.802 50.2627
192 2 92.8338 125.792 50.2607
193 1 92.1156 127.046 50.2637
194 2 95.0072 127.036 50.263
195 1 94.2889 128.291 50.2662
196 2 97.1805 128.281 50.2664
197 1 96.4622 129.535 50.2698
198 2 99.354 129.525 50.2705
199 1 98.6355 130.779 50.2742
200 2 101.527 130.769 50.2751
201 1 100.809 132.023 50.2791
202 2 103.701 132.013 50.2798
203 1 102.982 133.267 50.2842
204 2 105.875 133.256 50.2842
205 1 105.156 134.511 50.289
206 2 108.048 134.5 50.2882
207 1 107.33 135.754 50.2934
208 2 110.222 135.743 50.2915
209 1 109.503 136.997 50.2971
210 2 112.397 136.985 50.2941
211 1 111.678 138.239 50.3001
212 2 114.571 138.227 50.2959
213 1 113.852 139.481 50.3022
214 2 116.746 139.468 50.2968
215 1 116.027 140.722 50.3034
216 2 118.922 140.708 50.2969
217 1 63.8414 108.362 50.3038
218 2 66.7332 108.351 50.2944
219 1 66.0171 109.606 50.3023
220 2 68.9087 109.596 50.2929
221 1 68.1923 110.851 50.3003
222 2 71.0838 110.841 50.2909
223 1 70.3672 112.096 50.2978
224 2 73.2586 112.086 50.2884
225 1 72.5418 113.341 50.2947
226 2 75.4332 113.33 50.2854
227 1 74.7162 114.585 50.2913
228 2 77.6075 114.575 50.2821
229 1 76.8903 115.83 50.2874
230 2 79.7817 115.82 50.2786
231 1 79.0643 117.075 50.2834
232 2 81.9556 117.065 50.2751
233 1 81.2381 118.32 50.2795
234 2 84.1295 118.31 50.2718
235 1 83.4118 119.564 50.2759
236 2 86.3032 119.554 50.2692
237 1 85.5855 120.809 50.2729
238 2 88.4769 120.799 50.2673
239 1 87.759 122.054 50.2708
240 2 90.6505 122.044 50.2665
241 1 89.9325 123.298 50.2699
242 2 92.824 123.288 50.2669
243 1 92.106 124.543 50.2703
244 2 94.9975 124.533 50.2685
245 1 94.2794 125.787 50.2719
246 2 97.171 125.777 50.2711
247 1 96.4528 127.032 50.2747
248 2 99.3445 127.021 50.2745
249 1 98.6262 128.276 50.2783
250 2 101.518 128.266 50.2785
251 1 100.8 129.52 50.2826
252 2 103.692 129.51 50.2827
253 1 102.973 130.764 50.2871
254 2 105.865 130.753 50.2868
255 1 105.147 132.008 50.2915
256 2 108.039 131.997 50.2905
257 1 107.32 133.251 50.2955
258 2 110.213 133.24 50.2936
259 1 109.494 134.494 50.299
260 2 112.387 134.482 50.2961
261 1 111.668 135.736 50.3018
262 2 114.562 135.724 50.2978
263 1 113.843 136.978 50.3038
264 2 116.737 136.966 50.2987
265 1 116.017 138.22 50.305
266 2 118.912 138.206 50.2987
267 1 118.192 139.46 50.3053
268 2 121.088 139.446 50.2979
269 1 120.368 140.699 50.3048
270 2 123.264 140.684 50.2961
271 1 61.6497 104.613 50.3033
272 2 64.5419 104.602 50.2946
273 1 63.8266 105.858 50.3032
274 2 66.7186 105.847 50.2945
275 1 66.003 107.103 50.3027
276 2 68.8948 107.092 50.2939
277 1 68.1789 108.347 50.3016
278 2 71.0706 108.337 50.2929
279 1 70.3544 109.592 50.3001
280 2 73.2459 109.582 50.2913
281 1 72.5295 110.837 50.2981
282 2 75.421 110.827 50.2893
283 1 74.7043 112.082 50.2956
284 2 77.5957 112.071 50.2869
285 1 76.8788 113.326 50.2927
286 2 79.7702 113.316 50.2841
287 1 79.0531 114.571 50.2895
288 2 81.9445 114.561 50.2812
289 1 81.2273 115.816 50.2862
290 2 84.1186 115.806 50.2784
291 1 83.4012 117.061 50.283
292 2 86.2926 117.051 50.2759
293 1 85.5751 118.305 50.2802
294 2 88.4664 118.295 50.274
295 1 87.7488 119.55 50.278
296 2 90.6402 119.54 50.2729
297 1 89.9225 120.795 50.2768
298 2 92.8139 120.785 50.2728
299 1 92.0961 122.039 50.2766
300 2 94.9876 122.029 50.2738
301 1 94.2696 123.284 50.2776
302 2 97.1612 123.274 50.2757
303 1 96.4431 124.528 50.2796
304 2 99.3348 124.518 50.2785
305 1 98.6166 125.772 50.2826
306 2 101.508 125.762 50.2819
307 1 100.79 127.017 50.2862
308 2 103.682 127.006 50.2856
309 1 102.964 128.261 50.2902
310 2 105.856 128.25 50.2893
311 1 105.137 129.504 50.2942
312 2 108.03 129.494 50.2928
313 1 107.311 130.748 50.2979
314 2 110.204 130.737 50.2958
315 1 109.485 131.991 50.3012
316 2 112.378 131.98 50.2982
317 1 111.659 133.234 50.3039
318 2 114.552 133.222 50.2999
319 1 113.833 134.476 50.3058
320 2 116.727 134.463 50.3008
321 1 116.008 135.717 50.307
322 2 118.902 135.704 50.3008
323 1 118.183 136.958 50.3073
324 2 121.078 136.944 50.3
325 1 120.358 138.198 50.3067
326 2 123.254 138.183 50.2983
327 1 122.534 139.437 50.3053
328 2 125.431 139.42 50.2957
329 1 124.711 140.674 50.3029
330 2 127.609 140.656 50.2921
331 1 59.4539 100.865 50.2996
332 2 62.3469 100.853 50.2915
333 1 61.6326 102.11 50.3009
334 2 64.5252 102.098 50.2928
335 1 63.8105 103.354 50.3017
336 2 66.7028 103.343 50.2936
337 1 65.9878 104.599 50.3021
338 2 68.8798 104.588 50.2939
339 1 68.1644 105.844 50.302
340 2 71.0563 105.833 50.2938
341 1 70.3406 107.088 50.3014
342 2 73.2322 107.078 50.2931
343 1 72.5163 108.333 50.3003
344 2 75.4078 108.323 50.292
345 1 74.6916 109.578 50.2988
346 2 77.5831 109.568 50.2905
347 1 76.8666 110.823 50.2968
348 2 79.758 110.812 50.2885
349 1 79.0413 112.067 50.2944
350 2 81.9326 112.057 50.2863
351 1 81.2158 113.312 50.2918
352 2 84.1071 113.302 50.284
353 1 83.3901 114.557 50.2891
354 2 86.2814 114.547 50.2818
355 1 85.5642 115.802 50.2866
356 2 88.4555 115.792 50.2799
357 1 87.7381 117.046 50.2845
358 2 90.6295 117.036 50.2786
359 1 89.912 118.291 50.283
360 2 92.8034 118.281 50.2782
361 1 92.0858 119.536 50.2825
362 2 94.9772 119.526 50.2786
363 1 94.2595 120.78 50.2829
364 2 97.151 120.77 50.28
365 1 96.4331 122.025 50.2843
366 2 99.3247 122.015 50.2822
367 1 98.6068 123.269 50.2867
368 2 101.498 123.259 50.2851
369 1 100.78 124.513 50.2897
370 2 103.672 124.503 50.2884
371 1 102.954 125.757 50.2932
372 2 105.846 125.747 50.2918
373 1 105.128 127.001 50.2968
374 2 108.02 126.991 50.2951
375 1 107.301 128.245 50.3003
376 2 110.194 128.234 50.298
377 1 109.475 129.488 50.3035
378 2 112.368 129.477 50.3004
379 1 111.649 130.731 50.3061
380 2 114.543 130.719 50.3021
381 1 113.824 131.973 50.308
382 2 116.717 131.961 50.303
383 1 115.998 133.215 50.3091
384 2 118.893 133.202 50.3031
385 1 118.173 134.456 50.3095
386 2 121.068 134.442 50.3024
387 1 120.349 135.696 50.309
388 2 123.244 135.682 50.3008
389 1 122.524 136.936 50.3076
390 2 125.421 136.92 50.2983
391 1 124.701 138.173 50.3053
392 2 127.598 138.156 50.2948
393 1 126.878 139.41 50.302
394 2 129.776 139.391 50.2903
395 1 129.055 140.645 50.2978
396 2 131.955 140.624 50.2848
397 1 57.2532 97.1175 50.2926
398 2 60.1472 97.1051 50.2851
399 1 59.434 98.3617 50.2953
400 2 62.3275 98.3497 50.2877
401 1 61.6139 99.6061 50.2975
402 2 64.5069 99.5944 50.2899
403 1 63.7929 100.851 50.2992
404 2 66.6855 100.839 50.2916
405 1 65.9711 102.095 50.3005
406 2 68.8634 102.084 50.2928
407 1 68.1487 103.34 50.3013
408 2 71.0407 103.329 50.2936
409 1 70.3256 104.585 50.3016
410 2 73.2174 104.574 50.2939
411 1 72.502 105.829 50.3015
412 2 75.3937 105.819 50.2936
413 1 74.6779 107.074 50.3008
414 2 77.5695 107.064 50.2929
415 1 76.8535 108.319 50.2997
416 2 79.7449 108.309 50.2917
417 1 79.0287 109.564 50.2982
418 2 81.92 109.553 50.2902
419 1 81.2036 110.809 50.2963
420 2 84.0949 110.798 50.2884
421 1 83.3782 112.053 50.2941
422 2 86.2695 112.043 50.2866
423 1 85.5527 113.298 50.292
424 2 88.444 113.288 50.2849
425 1 87.7269 114.543 50.29
426 2 90.6182 114.533 50.2836
427 1 89.9011 115.787 50.2886
428 2 92.7924 115.777 50.2829
429 1 92.0751 117.032 50.2877
430 2 94.9664 117.022 50.2829
431 1 94.249 118.277 50.2878
432 2 97.1404 118.267 50.2838
433 1 96.4228 119.521 50.2887
434 2 99.3143 119.511 50.2856
435 1 98.5966 120.766 50.2905
436 2 101.488 120.755 50.288
437 1 100.77 122.01 50.293
438 2 103.662 122 50.2909
439 1 102.944 123.254 50.296
440 2 105.836 123.244 50.294
441 1 105.118 124.498 50.2993
442 2 108.01 124.488 50.2971
443 1 107.292 125.742 50.3026
444 2 110.184 125.731 50.3
445 1 109.466 126.985 50.3056
446 2 112.358 126.974 50.3024
447 1 111.64 128.228 50.3082
448 2 114.533 128.217 50.3042
449 1 113.814 129.471 50.3101
450 2 116.708 129.459 50.3052
451 1 115.989 130.713 50.3114
452 2 118.883 130.7 50.3055
453 1 118.163 131.954 50.3118
454 2 121.058 131.941 50.3049
455 1 120.339 133.195 50.3114
456 2 123.234 133.18 50.3035
457 1 122.514 134.434 50.3101
458 2 125.411 134.419 50.3011
459 1 124.691 135.672 50.3079
460 2 127.588 135.656 50.2977
461 1 126.867 136.909 50.3048
462 2 129.765 136.891 50.2933
463 1 129.045 138.145 50.3006
464 2 131.944 138.125 50.2879
465 1 131.223 139.379 50.2955
466 2 134.123 139.357 50.2816
467 1 133.402 140.611 50.2894
468 2 136.303 140.587 50.2744
469 1 55.0467 93.3708 50.2824
470 2 57.9421 93.3575 50.2756
471 1 57.2301 94.6145 50.2864
472 2 60.1248 94.6016 50.2795
473 1 59.4123 95.8585 50.29
474 2 62.3063 95.846 50.2829
475 1 61.5935 97.1027 50.293
476 2 64.4869 97.0906 50.286
477 1 63.7736 98.3471 50.2957
478 2 66.6667 98.3353 50.2885
479 1 65.9529 99.5917 50.2978
480 2 68.8456 99.5802 50.2906
481 1 68.1315 100.836 50.2995
482 2 71.0237 100.825 50.2923
483 1 70.3093 102.081 50.3008
484 2 73.2013 102.07 50.2934
485 1 72.4865 103.326 50.3015
486 2 75.3783 103.315 50.294
487 1 74.6631 104.571 50.3017
488 2 77.5547 104.56 50.2941
489 1 76.8393 105.815 50.3015
490 2 79.7308 105.805 50.2937
491 1 79.0151 107.06 50.3007
492 2 81.9065 107.05 50.2929
493 1 81.1905 108.305 50.2995
494 2 84.0818 108.294 50.2917
495 1 83.3656 109.55 50.298
496 2 86.2568 109.539 50.2902
497 1 85.5404 110.794 50.2963
498 2 88.4317 110.784 50.2888
499 1 87.7151 112.039 50.2946
500 2 90.6063 112.029 50.2876
501 1 89.8895 113.284 50.2932
502 2 92.7807 113.274 50.2868
503 1 92.0638 114.529 50.2923
504 2 94.955 114.518 50.2866
505 1 94.2379 115.773 50.292
506 2 97.1292 115.763 50.2871
507 1 96.412 117.018 50.2925
508 2 99.3033 117.008 50.2885
509 1 98.5859 118.262 50.2938
510 2 101.477 118.252 50.2904
511 1 100.76 119.507 50.2959
512 2 103.651 119.496 50.293
513 1 102.934 120.751 50.2985
514 2 105.826 120.741 50.2959
515 1 105.108 121.995 50.3015
516 2 108 121.984 50.2988
517 1 107.282 123.239 50.3046
518 2 110.174 123.228 50.3017
519 1 109.456 124.482 50.3075
520 2 112.348 124.471 50.3041
521 1 111.63 125.726 50.3101
522 2 114.523 125.714 50.306
523 1 113.804 126.968 50.3121
524 2 116.697 126.956 50.3073
525 1 115.979 128.211 50.3135
526 2 118.872 128.198 50.3078
527 1 118.153 129.452 50.3141
528 2 121.048 129.439 50.3074
529 1 120.329 130.693 50.3138
530 2 123.224 130.679 50.3061
531 1 122.504 131.933 50.3127
532 2 125.4 131.917 50.304
533 1 124.68 133.171 50.3107
534 2 127.577 133.155 50.3008
535 1 126.857 134.409 50.3077
536 2 129.755 134.391 50.2965
537 1 129.034 135.645 50.3037
538 2 131.933 135.625 50.2913
539 1 131.212 136.879 50.2987
540 2 134.112 136.857 50.285
541 1 133.391 138.111 50.2926
542 2 136.292 138.088 50.2778
543 1 135.571 139.342 50.2856
544 2 138.472 139.316 50.2699
545 1 137.751 140.57 50.2779
546 2 140.654 140.543 50.2615
547 1 52.8339 89.6256 50.2697
548 2 55.7311 89.6111 50.2637
549 1 55.0201 90.8684 50.2748
550 2 57.9163 90.8545 50.2685
551 1 57.205 92.1118 50.2795
552 2 60.1003 92.0984 50.2731
553 1 59.3886 93.3555 50.2838
554 2 62.2832 93.3426 50.2773
555 1 61.5711 94.5995 50.2877
556 2 64.4651 94.587 50.281
557 1 63.7526 95.8438 50.2911
558 2 66.646 95.8316 50.2844
559 1 65.933 97.0882 50.2941
560 2 68.826 97.0763 50.2873
561 1 68.1126 98.3328 50.2967
562 2 71.0052 98.3211 50.2898
563 1 70.2915 99.5774 50.2988
564 2 73.1837 99.566 50.2917
565 1 72.4696 100.822 50.3003
566 2 75.3615 100.811 50.2932
567 1 74.647 102.067 50.3014
568 2 77.5387 102.056 50.2941
569 1 76.824 103.312 50.302
570 2 79.7155 103.301 50.2944
571 1 79.0004 104.556 50.302
572 2 81.8918 104.546 50.2943
573 1 81.1764 105.801 50.3015
574 2 84.0677 105.791 50.2937
575 1 83.352 107.046 50.3007
576 2 86.2432 107.035 50.2928
577 1 85.5273 108.291 50.2995
578 2 88.4185 108.28 50.2917
579 1 87.7024 109.536 50.2982
580 2 90.5935 109.525 50.2907
581 1 89.8772 110.78 50.2969
582 2 92.7683 110.77 50.2899
583 1 92.0518 112.025 50.296
584 2 94.9429 112.015 50.2896
585 1 94.2262 113.27 50.2955
586 2 97.1174 113.259 50.2898
587 1 96.4005 114.514 50.2957
588 2 99.2918 114.504 50.2908
589 1 98.5747 115.759 50.2967
590 2 101.466 115.749 50.2924
591 1 100.749 117.003 50.2983
592 2 103.64 116.993 50.2947
593 1 102.923 118.248 50.3006
594 2 105.815 118.237 50.2973
595 1 105.097 119.492 50.3033
596 2 107.989 119.481 50.3001
597 1 107.271 120.736 50.3062
598 2 110.163 120.725 50.3029
599 1 109.445 121.979 50.309
600 2 112.338 121.968 50.3055
601 1 111.619 123.223 50.3117
602 2 114.512 123.211 50.3075
603 1 113.794 124.466 50.3138
604 2 116.687 124.454 50.309
605 1 115.968 125.708 50.3154
606 2 118.862 125.696 50.3098
607 1 118.143 126.95 50.3162
608 2 121.037 126.937 50.3097
609 1 120.318 128.191 50.3162
610 2 123.213 128.177 50.3087
611 1 122.494 129.431 50.3153
612 2 125.39 129.416 50.3068
613 1 124.67 130.67 50.3135
614 2 127.566 130.654 50.3039
615 1 126.847 131.908 50.3108
616 2 129.744 131.89 50.2999
617 1 129.024 133.144 50.3069
618 2 131.922 133.125 50.2948
619 1 131.202 134.379 50.3021
620 2 134.101 134.358 50.2887
621 1 133.38 135.612 50.2961
622 2 136.281 135.589 50.2815
623 1 135.559 136.843 50.2892
624 2 138.461 136.817 50.2735
625 1 137.739 138.072 50.2814
626 2 140.642 138.044 50.2648
627 1 139.92 139.298 50.273
628 2 142.823 139.269 50.2559
629 1 142.101 140.524 50.2643
630 2 145.005 140.492 50.2472
631 1 50.6151 85.8824 50.2556
632 2 53.5143 85.8665 50.2504
633 1 52.804 87.124 50.2614
634 2 55.7021 87.1089 50.2558
635 1 54.9916 88.3664 50.2668
636 2 57.8886 88.3519 50.2611
637 1 57.1779 89.6094 50.272
638 2 60.074 89.5954 50.2661
639 1 59.363 90.8528 50.2769
640 2 62.2582 90.8393 50.2708
641 1 61.5468 92.0965 50.2814
642 2 64.4413 92.0835 50.2752
643 1 63.7296 93.3406 50.2856
644 2 66.6235 93.3279 50.2793
645 1 65.9113 94.5849 50.2893
646 2 68.8046 94.5725 50.2829
647 1 68.0921 95.8293 50.2927
648 2 70.9849 95.8173 50.2861
649 1 70.272 97.0739 50.2956
650 2 73.1644 97.0621 50.2888
651 1 72.4511 98.3185 50.298
652 2 75.3432 98.307 50.2911
653 1 74.6295 99.5633 50.2999
654 2 77.5213 99.5519 50.2927
655 1 76.8072 100.808 50.3012
656 2 79.6988 100.797 50.2938
657 1 78.9844 102.053 50.302
658 2 81.8758 102.042 50.2944
659 1 81.1611 103.298 50.3023
660 2 84.0523 103.287 50.2945
661 1 83.3373 104.542 50.3021
662 2 86.2285 104.532 50.2941
663 1 85.5132 105.787 50.3015
664 2 88.4043 105.777 50.2935
665 1 87.6887 107.032 50.3006
666 2 90.5798 107.021 50.2927
667 1 89.864 108.277 50.2996
668 2 92.755 108.266 50.292
669 1 92.039 109.521 50.2988
670 2 94.93 109.511 50.2917
671 1 94.2138 110.766 50.2982
672 2 97.1048 110.756 50.2918
673 1 96.3884 112.011 50.2983
674 2 99.2795 112 50.2925
675 1 98.5629 113.255 50.2989
676 2 101.454 113.245 50.2939
677 1 100.737 114.5 50.3002
678 2 103.629 114.49 50.2958
679 1 102.912 115.744 50.3022
680 2 105.803 115.734 50.2982
681 1 105.086 116.989 50.3046
682 2 107.977 116.978 50.3009
683 1 107.26 118.233 50.3073
684 2 110.152 118.222 50.3037
685 1 109.434 119.476 50.3101
686 2 112.327 119.465 50.3063
687 1 111.609 120.72 50.3128
688 2 114.501 120.709 50.3086
689 1 113.783 121.963 50.3151
690 2 116.676 121.951 50.3103
691 1 115.958 123.206 50.3169
692 2 118.851 123.193 50.3114
693 1 118.133 124.448 50.318
694 2 121.027 124.435 50.3117
695 1 120.308 125.689 50.3183
696 2 123.202 125.675 50.3111
697 1 122.484 126.929 50.3177
698 2 125.379 126.915 50.3095
699 1 124.659 128.169 50.3163
700 2 127.556 128.153 50.3069
701 1 126.836 129.407 50.3138
702 2 129.733 129.39 50.3032
703 1 129.013 130.644 50.3102
704 2 131.911 130.625 50.2984
705 1 131.191 131.879 50.3056
706 2 134.09 131.858 50.2924
707 1 133.369 133.112 50.2998
708 2 136.269 133.089 50.2854
709 1 135.548 134.343 50.2929
710 2 138.449 134.319 50.2773
711 1 137.728 135.573 50.2851
712 2 140.63 135.546 50.2685
713 1 139.908 136.8 50.2766
714 2 142.811 136.771 50.2593
715 1 142.089 138.025 50.2676
716 2 144.993 137.994 50.25
717 1 144.271 139.249 50.2584
718 2 147.174 139.216 50.241
719 1 146.452 140.471 50.2496
720 2 149.356 140.436 50.2327
721 1 48.3913 82.142 50.2414
722 2 51.2927 82.1245 50.237
723 1 50.5826 83.382 50.2474
724 2 53.4827 83.3654 50.2427
725 1 52.7727 84.623 50.2532
726 2 55.6716 84.6072 50.2482
727 1 54.9615 85.8648 50.2588
728 2 57.8593 85.8496 50.2536
729 1 57.1491 87.1073 50.2643
730 2 60.0459 87.0927 50.2588
731 1 59.3355 88.3503 50.2695
732 2 62.2313 88.3362 50.2638
733 1 61.5206 89.5937 50.2745
734 2 64.4157 89.5802 50.2687
735 1 63.7047 90.8376 50.2792
736 2 66.599 90.8244 50.2732
737 1 65.8877 92.0817 50.2836
738 2 68.7814 92.0689 50.2775
739 1 68.0696 93.326 50.2876
740 2 70.9628 93.3135 50.2813
741 1 70.2507 94.5704 50.2912
742 2 73.1433 94.5582 50.2847
743 1 72.4308 95.815 50.2944
744 2 75.3231 95.8031 50.2877
745 1 74.6102 97.0597 50.297
746 2 77.5021 97.048 50.2901
747 1 76.7889 98.3044 50.2992
748 2 79.6805 98.2929 50.2919
749 1 78.9669 99.5491 50.3007
750 2 81.8583 99.5378 50.2932
751 1 81.1444 100.794 50.3017
752 2 84.0356 100.783 50.2939
753 1 83.3214 102.039 50.3022
754 2 86.2124 102.028 50.2941
755 1 85.4979 103.284 50.3022
756 2 88.3888 103.273 50.294
757 1 87.674 104.528 50.3018
758 2 90.5649 104.518 50.2936
759 1 89.8497 105.773 50.3012
760 2 92.7406 105.762 50.2932
761 1 92.0252 107.018 50.3005
762 2 94.916 107.007 50.2929
763 1 94.2004 108.263 50.3001
764 2 97.0913 108.252 50.293
765 1 96.3754 109.507 50.3
766 2 99.2663 109.497 50.2935
767 1 98.5503 110.752 50.3005
768 2 101.441 110.741 50.2947
769 1 100.725 111.997 50.3015
770 2 103.616 111.986 50.2964
771 1 102.9 113.241 50.3032
772 2 105.791 113.23 50.2986
773 1 105.074 114.485 50.3054
774 2 107.965 114.475 50.3012
775 1 107.249 115.729 50.308
776 2 110.14 115.719 50.304
777 1 109.423 116.973 50.3108
778 2 112.315 116.962 50.3067
779 1 111.598 118.217 50.3135
780 2 114.49 118.206 50.3092
781 1 113.772 119.46 50.3159
782 2 116.665 119.449 50.3112
783 1 115.947 120.703 50.318
784 2 118.84 120.691 50.3126
785 1 118.122 121.945 50.3194
786 2 121.015 121.932 50.3132
787 1 120.297 123.187 50.32
788 2 123.191 123.173 50.313
789 1 122.473 124.428 50.3198
790 2 125.368 124.413 50.3119
791 1 124.649 125.667 50.3187
792 2 127.544 125.652 50.3097
793 1 126.825 126.906 50.3166
794 2 129.722 126.889 50.3064
795 1 129.002 128.143 50.3134
796 2 131.9 128.124 50.3019
797 1 131.18 129.378 50.3091
798 2 134.078 129.358 50.2962
799 1 133.358 130.612 50.3035
800 2 136.258 130.59 50.2893
801 1 135.537 131.844 50.2969
802 2 138.438 131.819 50.2814
803 1 137.716 133.074 50.2891
804 2 140.618 133.047 50.2725
805 1 139.897 134.301 50.2805
806 2 142.799 134.272 50.263
807 1 142.078 135.527 50.2712
808 2 144.981 135.496 50.2533
809 1 144.259 136.75 50.2617
810 2 147.162 136.717 50.2437
811 1 146.44 137.972 50.2522
812 2 149.344 137.937 50.2346
813 1 148.622 139.192 50.2433
814 2 151.524 139.156 50.2263
815 1 150.803 140.412 50.2351
816 2 153.704 140.375 50.2191
817 1 46.1641 78.4053 50.228
818 2 49.0678 78.3862 50.2247
819 1 48.3572 79.6432 50.2341
820 2 51.2595 79.625 50.2303
821 1 50.5493 80.8823 50.2399
822 2 53.4502 80.865 50.2357
823 1 52.7402 82.1225 50.2456
824 2 55.6399 82.106 50.241
825 1 54.93 83.3636 50.2512
826 2 57.8286 83.3478 50.2463
827 1 57.1187 84.6055 50.2567
828 2 60.0162 84.5904 50.2516
829 1 59.3063 85.8481 50.2621
830 2 62.2027 85.8335 50.2567
831 1 61.4926 87.0912 50.2673
832 2 64.3882 87.0771 50.2617
833 1 63.6779 88.3347 50.2723
834 2 66.5727 88.321 50.2666
835 1 65.8621 89.5786 50.2771
836 2 68.7562 89.5653 50.2712
837 1 68.0453 90.8227 50.2817
838 2 70.9388 90.8097 50.2756
839 1 70.2275 92.067 50.2859
840 2 73.1204 92.0544 50.2795
841 1 72.4088 93.3115 50.2896
842 2 75.3012 93.2991 50.2831
843 1 74.5892 94.5561 50.293
844 2 77.4813 94.544 50.2861
845 1 76.7689 95.8007 50.2958
846 2 79.6606 95.7888 50.2886
847 1 78.9479 97.0455 50.2981
848 2 81.8392 97.0338 50.2906
849 1 81.1262 98.2902 50.2998
850 2 84.0173 98.2787 50.2919
851 1 83.3039 99.535 50.3009
852 2 86.1949 99.5237 50.2928
853 1 85.4811 100.78 50.3015
854 2 88.372 100.769 50.2932
855 1 87.6579 102.025 50.3017
856 2 90.5486 102.014 50.2933
857 1 89.8343 103.269 50.3015
858 2 92.7249 103.259 50.2932
859 1 92.0103 104.514 50.3012
860 2 94.9009 104.503 50.2931
861 1 94.186 105.759 50.3009
862 2 97.0766 105.748 50.2932
863 1 96.3615 107.004 50.3009
864 2 99.2521 106.993 50.2938
865 1 98.5367 108.248 50.3013
866 2 101.427 108.238 50.2948
867 1 100.712 109.493 50.3022
868 2 103.603 109.482 50.2964
869 1 102.887 110.738 50.3037
870 2 105.778 110.727 50.2984
871 1 105.061 111.982 50.3057
872 2 107.953 111.971 50.3009
873 1 107.236 113.226 50.3081
874 2 110.128 113.215 50.3037
875 1 109.411 114.47 50.3109
876 2 112.302 114.459 50.3065
877 1 111.586 115.714 50.3136
878 2 114.478 115.703 50.3091
879 1 113.76 116.957 50.3162
880 2 116.653 116.946 50.3114
881 1 115.935 118.2 50.3185
882 2 118.828 118.188 50.3132
883 1 118.11 119.443 50.3202
884 2 121.004 119.43 50.3143
885 1 120.286 120.685 50.3213
886 2 123.18 120.671 50.3145
887 1 122.461 121.926 50.3215
888 2 125.356 121.911 50.3139
889 1 124.637 123.166 50.3209
890 2 127.533 123.15 50.3122
891 1 126.814 124.404 50.3192
892 2 129.71 124.388 50.3093
893 1 128.991 125.642 50.3164
894 2 131.888 125.624 50.3052
895 1 131.168 126.878 50.3124
896 2 134.066 126.858 50.2999
897 1 133.346 128.112 50.3072
898 2 136.246 128.09 50.2933
899 1 135.525 129.344 50.3008
900 2 138.426 129.32 50.2854
901 1 137.705 130.574 50.2932
902 2 140.606 130.548 50.2766
903 1 139.885 131.802 50.2845
904 2 142.787 131.773 50.2669
905 1 142.066 133.028 50.2751
906 2 144.969 132.997 50.2568
907 1 144.247 134.252 50.2652
908 2 147.15 134.218 50.2466
909 1 146.428 135.473 50.2552
910 2 149.331 135.438 50.2368
911 1 148.61 136.694 50.2456
912 2 151.512 136.657 50.2278
913 1 150.791 137.913 50.2366
914 2 153.692 137.875 50.2197
915 1 152.972 139.131 50.2287
916 2 155.871 139.092 50.2128
917 1 155.151 140.349 50.2218
918 2 158.049 140.31 50.2072
919 1 43.9355 74.6733 50.2162
920 2 46.8414 74.6522 50.2138
921 1 46.1297 75.9084 50.222
922 2 49.0341 75.8884 50.2192
923 1 48.3231 77.1451 50.2278
924 2 51.2261 77.1262 50.2245
925 1 50.5156 78.3832 50.2334
926 2 53.4172 78.3652 50.2297
927 1 52.7071 79.6225 50.2389
928 2 55.6075 79.6054 50.2347
929 1 54.8976 80.8629 50.2443
930 2 57.7968 80.8465 50.2398
931 1 57.0872 82.1042 50.2496
932 2 59.9853 82.0884 50.2448
933 1 59.2757 83.3463 50.2549
934 2 62.1727 83.331 50.2498
935 1 61.4631 84.5889 50.2601
936 2 64.3592 84.5742 50.2548
937 1 63.6495 85.8321 50.2652
938 2 66.5447 85.8178 50.2597
939 1 65.8348 87.0756 50.2702
940 2 68.7293 87.0618 50.2645
941 1 68.0191 88.3195 50.275
942 2 70.9129 88.3061 50.2691
943 1 70.2024 89.5637 50.2796
944 2 73.0956 89.5505 50.2734
945 1 72.3848 90.808 50.2839
946 2 75.2774 90.7952 50.2774
947 1 74.5664 92.0525 50.2877
948 2 77.4585 92.0399 50.2809
949 1 76.7471 93.2971 50.2912
950 2 79.6388 93.2848 50.284
951 1 78.927 94.5418 50.2941
952 2 81.8184 94.5297 50.2866
953 1 81.1062 95.7865 50.2965
954 2 83.9973 95.7746 50.2886
955 1 83.2848 97.0313 50.2983
956 2 86.1757 97.0196 50.2901
957 1 85.4628 98.2761 50.2995
958 2 88.3535 98.2645 50.291
959 1 87.6403 99.5209 50.3002
960 2 90.5309 99.5095 50.2916
961 1 89.8174 100.766 50.3006
962 2 92.7078 100.754 50.2919
963 1 91.994 102.011 50.3007
964 2 94.8844 101.999 50.2921
965 1 94.1703 103.255 50.3007
966 2 97.0606 103.244 50.2924
967 1 96.3463 104.5 50.3008
968 2 99.2366 104.489 50.293
969 1 98.522 105.745 50.3012
970 2 101.412 105.734 50.294
971 1 100.697 106.99 50.3021
972 2 103.588 106.979 50.2955
973 1 102.873 108.234 50.3034
974 2 105.763 108.223 50.2975
975 1 105.048 109.479 50.3053
976 2 107.939 109.468 50.3
977 1 107.223 110.723 50.3077
978 2 110.114 110.712 50.3027
979 1 109.398 111.967 50.3103
980 2 112.289 111.956 50.3056
981 1 111.573 113.211 50.3132
982 2 114.464 113.199 50.3085
983 1 113.748 114.454 50.3159
984 2 116.64 114.443 50.3111
985 1 115.923 115.698 50.3185
986 2 118.815 115.685 50.3132
987 1 118.098 116.94 50.3205
988 2 120.991 116.928 50.3147
989 1 120.274 118.182 50.322
990 2 123.167 118.169 50.3155
991 1 122.449 119.424 50.3227
992 2 125.343 119.409 50.3153
993 1 124.626 120.664 50.3225
994 2 127.52 120.649 50.3141
995 1 126.802 121.903 50.3213
996 2 129.698 121.887 50.3118
997 1 128.979 123.141 50.319
998 2 131.876 123.123 50.3082
999 1 131.156 124.377 50.3155
1000 2 134.054 124.358 50.3033
1001 1 133.334 125.612 50.3107
1002 2 136.233 125.59 50.2971
1003 1 135.513 126.845 50.3046