LAMMPS data file

2382 atoms
6 atom types
0.0 49.01515276000152 xlo xhi
0.0 42.44836745977448 ylo yhi
0.0 35.0 zlo zhi
-24.50757638003903 0.0 0.0 xy xz yz

Masses

1 12.011
2 12.011
3 12.011
4 12.011
5 12.011
6 12.011

Atoms

1 1 46.91626712544111 1.2830740793886513 17.499999999999996
2 2 44.07659832858289 1.3543559726167382 17.499999999999996
3 1 44.7556495604547 0.10692283994905614 17.499999999999996
4 2 41.91598076359647 0.1782047331771437 17.499999999999996
5 1 44.81738149088068 2.5661481587773 17.499999999999996
6 2 41.97771269402247 2.637430052005388 17.499999999999996
7 1 42.656763925894275 1.3899969193377055 17.499999999999996
8 2 39.81709512903606 1.4612788125657925 17.499999999999996
9 1 40.49614636090786 0.2138456798981099 17.499999999999996
10 2 37.656477564049645 0.28512757312619746 17.499999999999996
11 1 44.879113421306684 5.025373477605543 17.499999999999996
12 2 42.039444624448464 5.096655370833631 17.499999999999996
13 1 42.718495856320274 3.849222238165948 17.499999999999996
14 2 39.878827059462054 3.9205041313940363 17.499999999999996
15 1 40.55787829133385 2.6730709987263523 17.499999999999996
16 2 37.718209494475644 2.744352891954441 17.499999999999996
17 1 38.39726072634745 1.4969197592867578 17.499999999999996
18 2 35.55759192948924 1.5682016525148454 17.499999999999996
19 1 36.23664316136104 0.3207685198471628 17.499999999999996
20 2 33.396974364502825 0.39205041307525057 17.499999999999996
21 1 42.78022778674626 6.308447556994191 17.499999999999996
22 2 39.94055898988805 6.379729450222279 17.499999999999996
23 1 40.61961022175986 5.132296317554597 17.499999999999996
24 2 37.77994142490165 5.203578210782686 17.499999999999996
25 1 38.45899265677344 3.956145078115002 17.499999999999996
26 2 35.61932385991523 4.02742697134309 17.499999999999996
27 1 36.29837509178703 2.779993838675407 17.499999999999996
28 2 33.45870629492882 2.851275731903495 17.499999999999996
29 1 34.13775752680062 1.6038425992358125 17.499999999999996
30 2 31.2980887299424 1.6751244924638997 17.499999999999996
31 1 31.97713996181421 0.4276913597962171 17.499999999999996
32 2 29.137471164955993 0.498973253024305 17.499999999999996
33 1 42.841959717172266 8.767672875822438 17.499999999999996
34 2 40.002290920314046 8.838954769050522 17.499999999999996
35 1 40.681342152185856 7.591521636382841 17.499999999999996
36 2 37.841673355327636 7.662803529610929 17.499999999999996
37 1 38.52072458719944 6.4153703969432465 17.499999999999996
38 2 35.681055790341226 6.486652290171334 17.499999999999996
39 1 36.36010702221303 5.23921915750365 17.499999999999996
40 2 33.520438225354816 5.310501050731739 17.499999999999996
41 1 34.19948945722661 4.063067918064056 17.499999999999996
42 2 31.359820660368406 4.134349811292144 17.499999999999996
43 1 32.0388718922402 2.8869166786244618 17.499999999999996
44 2 29.199203095381986 2.9581985718525496 17.499999999999996
45 1 29.878254327253796 1.7107654391848663 17.499999999999996
46 2 27.03858553039558 1.7820473324129542 17.499999999999996
47 1 27.717636762267382 0.5346141997452715 17.499999999999996
48 2 24.877967965409166 0.605896092973359 17.499999999999996
49 1 40.743074082611855 10.050746955211086 17.499999999999996
50 2 37.903405285753635 10.122028848439173 17.499999999999996
51 1 38.58245651762544 8.874595715771493 17.499999999999996
52 2 35.742787720767225 8.945877608999577 17.499999999999996
53 1 36.42183895263902 7.698444476331894 17.499999999999996
54 2 33.582170155780815 7.769726369559982 17.499999999999996
55 1 34.26122138765262 6.5222932368923 17.499999999999996
56 2 31.42155259079441 6.593575130120388 17.499999999999996
57 1 32.1006038226662 5.346141997452705 17.499999999999996
58 2 29.260935025807978 5.4174238906807926 17.499999999999996
59 1 29.93998625767979 4.16999075801311 17.499999999999996
60 2 27.10031746082157 4.241272651241198 17.499999999999996
61 1 27.77936869269337 2.9938395185735165 17.499999999999996
62 2 24.939699895835158 3.065121411801603 17.499999999999996
63 1 25.618751127706968 1.81768827913392 17.499999999999996
64 2 22.77908233084875 1.8889701723620083 17.499999999999996
65 1 23.458133562720555 0.6415370396943256 17.499999999999996
66 2 20.61846476586233 0.7128189329224129 17.499999999999996
67 1 40.80480601303785 12.509972274039328 17.499999999999996
68 2 37.96513721617963 12.581254167267415 17.499999999999996
69 1 38.64418844805144 11.333821034599737 17.499999999999996
70 2 35.80451965119322 11.40510292782782 17.499999999999996
71 1 36.48357088306502 10.157669795160139 17.499999999999996
72 2 33.64390208620681 10.228951688388225 17.499999999999996
73 1 34.32295331807861 8.981518555720545 17.499999999999996
74 2 31.483284521220394 9.052800448948632 17.499999999999996
75 1 32.1623357530922 7.805367316280948 17.499999999999996
76 2 29.322666956233988 7.876649209509034 17.499999999999996
77 1 30.00171818810579 6.629216076841353 17.499999999999996
78 2 27.162049391247567 6.700497970069441 17.499999999999996
79 1 27.84110062311937 5.453064837401758 17.499999999999996
80 2 25.001431826261157 5.524346730629846 17.499999999999996
81 1 25.68048305813296 4.276913597962164 17.499999999999996
82 2 22.840814261274744 4.348195491190252 17.499999999999996
83 1 23.51986549314655 3.1007623585225685 17.499999999999996
84 2 20.680196696288334 3.1720442517506573 17.499999999999996
85 1 21.359247928160137 1.924611119082974 17.499999999999996
86 2 18.51957913130192 1.9958930123110614 17.499999999999996
87 1 19.198630363173724 0.7484598796433789 17.499999999999996
88 2 16.358961566315507 0.8197417728714668 17.499999999999996
89 1 38.70592037847743 13.79304635342798 17.499999999999996
90 2 35.86625158161921 13.864328246656065 17.499999999999996
91 1 36.54530281349102 12.616895113988381 17.499999999999996
92 2 33.70563401663281 12.688177007216469 17.499999999999996
93 1 34.384685248504596 11.440743874548788 17.499999999999996
94 2 31.545016451646394 11.512025767776876 17.499999999999996
95 1 32.2240676835182 10.264592635109192 17.499999999999996
96 2 29.384398886659984 10.33587452833728 17.499999999999996
97 1 30.06345011853178 9.0884413956696 17.499999999999996
98 2 27.22378132167356 9.159723288897688 17.499999999999996
99 1 27.902832553545377 7.912290156230001 17.499999999999996
100 2 25.06316375668716 7.983572049458089 17.499999999999996
101 1 25.742214988558953 6.736138916790407 17.499999999999996
102 2 22.90254619170074 6.807420810018495 17.499999999999996
103 1 23.581597423572546 5.559987677350813 17.499999999999996
104 2 20.74192862671433 5.631269570578901 17.499999999999996
105 1 21.420979858586133 4.383836437911219 17.499999999999996
106 2 18.58131106172792 4.455118331139305 17.499999999999996
107 1 19.26036229359972 3.2076851984716233 17.499999999999996
108 2 16.42069349674151 3.2789670916997116 17.499999999999996
109 1 17.099744728613306 2.031533959032028 17.499999999999996
110 2 14.260075931755091 2.1028158522601155 17.499999999999996
111 1 14.939127163626898 0.8553827195924332 17.499999999999996
112 2 12.099458366768681 0.9266646128205208 17.499999999999996
113 1 38.76765230890342 16.252271672256217 17.499999999999996
114 2 35.9279835120452 16.323553565484307 17.499999999999996
115 1 36.60703474391701 15.076120432816627 17.499999999999996
116 2 33.7673659470588 15.147402326044714 17.499999999999996
117 1 34.4464171789306 13.89996919337703 17.499999999999996
118 2 31.606748382072386 13.971251086605118 17.499999999999996
119 1 32.285799613944185 12.723817953937436 17.499999999999996
120 2 29.446130817085976 12.795099847165524 17.499999999999996
121 1 30.12518204895778 11.547666714497842 17.499999999999996
122 2 27.285513252099566 11.618948607725928 17.499999999999996
123 1 27.96456448397137 10.371515475058246 17.499999999999996
124 2 25.124895687113156 10.442797368286334 17.499999999999996
125 1 25.803946918984956 9.195364235618653 17.499999999999996
126 2 22.964278122126736 9.266646128846741 17.499999999999996
127 1 23.643329353998542 8.019212996179055 17.499999999999996
128 2 20.803660557140326 8.090494889407143 17.499999999999996
129 1 21.48271178901213 6.843061756739464 17.499999999999996
130 2 18.643042992153916 6.914343649967549 17.499999999999996
131 1 19.32209422402572 5.666910517299868 17.499999999999996
132 2 16.482425427167502 5.738192410527954 17.499999999999996
133 1 17.161476659039305 4.490759277860272 17.499999999999996
134 2 14.321807862181087 4.562041171088358 17.499999999999996
135 1 15.000859094052895 3.3146080384206766 17.499999999999996
136 2 12.161190297194677 3.3858899316487645 17.499999999999996
137 1 12.84024152906648 2.138456798981082 17.499999999999996
138 2 10.000572732208264 2.2097386922091693 17.499999999999996
139 1 10.679623964080069 0.962305559541487 17.499999999999996
140 2 7.839955167221852 1.0335874527695745 17.499999999999996
141 1 36.66876667434301 17.535345751644876 17.499999999999996
142 2 33.829097877484806 17.60662764487296 17.499999999999996
143 1 34.508149109356594 16.359194512205278 17.499999999999996
144 2 31.66848031249838 16.430476405433367 17.499999999999996
145 1 32.34753154437019 15.18304327276568 17.499999999999996
146 2 29.50786274751197 15.254325165993768 17.499999999999996
147 1 30.186913979383775 14.006892033326091 17.499999999999996
148 2 27.347245182525562 14.078173926554175 17.499999999999996
149 1 28.02629641439736 12.83074079388649 17.499999999999996
150 2 25.186627617539138 12.902022687114577 17.499999999999996
151 1 25.865678849410955 11.654589554446899 17.499999999999996
152 2 23.02601005255273 11.725871447674985 17.499999999999996
153 1 23.70506128442454 10.4784383150073 17.499999999999996
154 2 20.865392487566318 10.549720208235389 17.499999999999996
155 1 21.544443719438124 9.302287075567707 17.499999999999996
156 2 18.70477492257991 9.373568968795794 17.499999999999996
157 1 19.38382615445171 8.126135836128109 17.499999999999996
158 2 16.54415735759349 8.197417729356197 17.499999999999996
159 1 17.2232085894653 6.949984596688515 17.499999999999996
160 2 14.383539792607086 7.021266489916602 17.499999999999996
161 1 15.06259102447889 5.773833357248921 17.499999999999996
162 2 12.222922227620673 5.845115250477009 17.499999999999996
163 1 12.901973459492478 4.597682117809327 17.499999999999996
164 2 10.062304662634261 4.668964011037414 17.499999999999996
165 1 10.741355894506064 3.421530878369732 17.499999999999996
166 2 7.901687097647848 3.4928127715978183 17.499999999999996
167 1 8.580738329519653 2.245379638930136 17.499999999999996
168 2 5.741069532661435 2.316661532158223 17.499999999999996
169 1 6.42012076453324 1.069228399490541 17.499999999999996
170 2 3.580451967675024 1.1405102927186286 17.499999999999996
171 1 36.73049860476901 19.994571070473118 17.499999999999996
172 2 33.89082980791079 20.065852963701207 17.499999999999996
173 1 34.569881039782594 18.81841983103352 17.499999999999996
174 2 31.73021224292438 18.88970172426161 17.499999999999996
175 1 32.40926347479618 17.642268591593922 17.499999999999996
176 2 29.569594677937964 17.71355048482201 17.499999999999996
177 1 30.248645909809778 16.466117352154328 17.499999999999996
178 2 27.408977112951554 16.537399245382414 17.499999999999996
179 1 28.088028344823357 15.289966112714735 17.499999999999996
180 2 25.248359547965137 15.361248005942823 17.499999999999996
181 1 25.927410779836947 14.11381487327514 17.499999999999996
182 2 23.087741982978734 14.185096766503229 17.499999999999996
183 1 23.766793214850537 12.937663633835545 17.499999999999996
184 2 20.927124417992317 13.008945527063632 17.499999999999996
185 1 21.606175649864124 11.76151239439595 17.499999999999996
186 2 18.76650685300591 11.832794287624038 17.499999999999996
187 1 19.445558084877703 10.585361154956354 17.499999999999996
188 2 16.605889288019494 10.65664304818444 17.499999999999996
189 1 17.284940519891297 9.40920991551676 17.499999999999996
190 2 14.445271723033079 9.480491808744848 17.499999999999996
191 1 15.124322954904889 8.233058676077164 17.499999999999996
192 2 12.28465415804667 8.304340569305252 17.499999999999996
193 1 12.963705389918474 7.05690743663757 17.499999999999996
194 2 10.124036593060257 7.128189329865657 17.499999999999996
195 1 10.803087824932062 5.880756197197975 17.499999999999996
196 2 7.963419028073844 5.952038090426061 17.499999999999996
197 1 8.642470259945648 4.70460495775838 17.499999999999996
198 2 5.802801463087432 4.775886850986469 17.499999999999996
199 1 6.481852694959237 3.528453718318785 17.499999999999996
200 2 3.64218389810102 3.5997356115468717 17.499999999999996
201 1 4.321235129972824 2.35230247887919 17.499999999999996
202 2 1.481566333114608 2.4235843721072774 17.499999999999996
203 1 2.160617564986412 1.176151239439595 17.499999999999996
204 2 -0.6790512318718044 1.2474331326676824 17.499999999999996
205 1 0.0 0.0 17.499999999999996
206 2 46.1754839631433 0.07128189322808659 17.499999999999996
207 1 34.63161297020859 21.27764514986176 17.499999999999996
208 2 31.79194417335037 21.348927043089855 17.499999999999996
209 1 32.470995405222176 20.101493910422167 17.499999999999996
210 2 29.631326608363963 20.172775803650254 17.499999999999996
211 1 30.310377840235773 18.925342670982573 17.499999999999996
212 2 27.470709043377553 18.99662456421066 17.499999999999996
213 1 28.149760275249353 17.749191431542982 17.499999999999996
214 2 25.31009147839114 17.820473324771072 17.499999999999996
215 1 25.989142710262943 16.573040192103388 17.499999999999996
216 2 23.149473913404723 16.644322085331474 17.499999999999996
217 1 23.828525145276537 15.396888952663788 17.499999999999996
218 2 20.988856348418313 15.468170845891876 17.499999999999996
219 1 21.667907580290116 14.220737713224198 17.499999999999996
220 2 18.828238783431896 14.292019606452286 17.499999999999996
221 1 19.50729001530371 13.044586473784596 17.499999999999996
222 2 16.66762121844549 13.115868367012684 17.499999999999996
223 1 17.346672450317293 11.868435234345007 17.499999999999996
224 2 14.507003653459076 11.939717127573095 17.499999999999996
225 1 15.186054885330886 10.692283994905406 17.499999999999996
226 2 12.34638608847267 10.763565888133494 17.499999999999996
227 1 13.025437320344468 9.516132755465813 17.499999999999996
228 2 10.185768523486253 9.587414648693901 17.499999999999996
229 1 10.86481975535806 8.339981516026217 17.499999999999996
230 2 8.02515095849984 8.411263409254305 17.499999999999996
231 1 8.704202190371646 7.163830276586623 17.499999999999996
232 2 5.864533393513427 7.2351121698147125 17.499999999999996
233 1 6.5435846253852334 5.9876790371470285 17.499999999999996
234 2 3.7039158285270166 6.058960930375116 17.499999999999996
235 1 4.38296706039882 4.811527797707435 17.499999999999996
236 2 1.543298263540604 4.882809690935522 17.499999999999996
237 1 2.2223494954124083 3.63537655826784 17.499999999999996
238 2 -0.6173193014458083 3.7066584514959264 17.499999999999996
239 1 0.06173193042599614 2.459225318828244 17.499999999999996
240 2 46.2372158935693 2.5305072120563303 17.499999999999996
241 1 34.693344900634585 23.736870468690014 17.499999999999996
242 2 31.853676103776362 23.808152361918093 17.499999999999996
243 1 32.53272733564818 22.560719229250417 17.499999999999996
244 2 29.69305853878996 22.632001122478503 17.499999999999996
245 1 30.372109770661773 21.38456798981081 17.499999999999996
246 2 27.53244097380355 21.45584988303891 17.499999999999996
247 1 28.211492205675352 20.208416750371224 17.499999999999996
248 2 25.37182340881714 20.279698643599314 17.499999999999996
249 1 26.050874640688935 19.032265510931627 17.499999999999996
250 2 23.211205843830722 19.103547404159716 17.499999999999996
251 1 23.890257075702536 17.856114271492032 17.499999999999996
252 2 21.050588278844305 17.92739616472012 17.499999999999996
253 1 21.72963951071612 16.679963032052434 17.499999999999996
254 2 18.8899707138579 16.751244925280524 17.499999999999996
255 1 19.5690219457297 15.503811792612844 17.499999999999996
256 2 16.729353148871482 15.575093685840928 17.499999999999996
257 1 17.408404380743292 14.327660553173246 17.499999999999996
258 2 14.568735583885072 14.398942446401337 17.499999999999996
259 1 15.24778681575688 13.151509313733651 17.499999999999996
260 2 12.408118018898666 13.22279120696174 17.499999999999996
261 1 13.087169250770467 11.975358074294057 17.499999999999996
262 2 10.247500453912249 12.046639967522145 17.499999999999996
263 1 10.926551685784057 10.799206834854461 17.499999999999996
264 2 8.08688288892584 10.87048872808255 17.499999999999996
265 1 8.76593412079764 9.62305559541487 17.499999999999996
266 2 5.926265323939422 9.694337488642956 17.499999999999996
267 1 6.605316555811231 8.44690435597527 17.499999999999996
268 2 3.7656477589530133 8.518186249203358 17.499999999999996
269 1 4.444698990824817 7.27075311653568 17.499999999999996
270 2 1.6050301939666012 7.342035009763766 17.499999999999996
271 1 2.284081425838404 6.094601877096084 17.499999999999996
272 2 -0.555587371019812 6.165883770324171 17.499999999999996
273 1 0.12346386085199228 4.918450637656488 17.499999999999996
274 2 -2.716204936006224 4.989732530884575 17.499999999999996
275 1 -2.0371537041344197 3.7422993982168924 17.499999999999996
276 2 44.138330259008875 3.8135812914449794 17.499999999999996
277 1 32.59445926607418 25.019944548078655 17.499999999999996
278 2 29.754790469215965 25.09122644130674 17.499999999999996
279 1 30.433841701087758 23.843793308639057 17.499999999999996
280 2 27.594172904229538 23.915075201867143 17.499999999999996
281 1 28.273224136101348 22.667642069199474 17.499999999999996
282 2 25.43355533924312 22.73892396242756 17.499999999999996
283 1 26.112606571114927 21.491490829759876 17.499999999999996
284 2 23.272937774256715 21.562772722987958 17.499999999999996
285 1 23.951989006128525 20.315339590320278 17.499999999999996
286 2 21.112320209270305 20.386621483548364 17.499999999999996
287 1 21.79137144114211 19.139188350880676 17.499999999999996
288 2 18.951702644283895 19.210470244108762 17.499999999999996
289 1 19.6307538761557 17.963037111441093 17.499999999999996
290 2 16.791085079297485 18.03431900466918 17.499999999999996
291 1 17.470136311169284 16.78688587200149 17.499999999999996
292 2 14.63046751431107 16.85816776522958 17.499999999999996
293 1 15.309518746182876 15.610734632561895 17.499999999999996
294 2 12.469849949324654 15.682016525789983 17.499999999999996
295 1 13.148901181196457 14.4345833931223 17.499999999999996
296 2 10.309232384338248 14.505865286350389 17.499999999999996
297 1 10.988283616210046 13.258432153682705 17.499999999999996
298 2 8.14861481935183 13.329714046910793 17.499999999999996
299 1 8.82766605122364 12.08228091424311 17.499999999999996
300 2 5.987997254365419 12.153562807471198 17.499999999999996
301 1 6.667048486237224 10.906129674803514 17.499999999999996
302 2 3.8273796893790086 10.977411568031602 17.499999999999996
303 1 4.506430921250813 9.729978435363924 17.499999999999996
304 2 1.666762124392597 9.80126032859201 17.499999999999996
305 1 2.3458133562644 8.553827195924326 17.499999999999996
306 2 -0.49385544059381653 8.625109089152414 17.499999999999996
307 1 0.18519579127798885 7.377675956484731 17.499999999999996
308 2 -2.6544730055802273 7.448957849712819 17.499999999999996
309 1 -1.9754217737084236 6.201524717045135 17.499999999999996
310 2 44.200062189434874 6.272806610273224 17.499999999999996
311 1 32.65619119650017 27.479169866906897 17.499999999999996
312 2 29.816522399641944 27.550451760134983 17.499999999999996
313 1 30.49557363151376 26.303018627467303 17.499999999999996
314 2 27.655904834655544 26.374300520695392 17.499999999999996
315 1 28.334956066527344 25.12686738802772 17.499999999999996
316 2 25.49528726966912 25.198149281255798 17.499999999999996
317 1 26.174338501540934 23.950716148588114 17.499999999999996
318 2 23.334669704682707 24.0219980418162 17.499999999999996
319 1 24.01372093655452 22.774564909148516 17.499999999999996
320 2 21.1740521396963 22.845846802376613 17.499999999999996
321 1 21.853103371568114 21.598413669708922 17.499999999999996
322 2 19.013434574709894 21.66969556293701 17.499999999999996
323 1 19.692485806581693 20.42226243026933 17.499999999999996
324 2 16.85281700972348 20.49354432349742 17.499999999999996
325 1 17.53186824159528 19.24611119082974 17.499999999999996
326 2 14.692199444737069 19.317393084057823 17.499999999999996
327 1 15.37125067660887 18.06995995139014 17.499999999999996
328 2 12.531581879750652 18.14124184461823 17.499999999999996
329 1 13.210633111622462 16.89380871195054 17.499999999999996
330 2 10.370964314764244 16.96509060517863 17.499999999999996
331 1 11.05001554663605 15.71765747251095 17.499999999999996
332 2 8.210346749777836 15.788939365739038 17.499999999999996
333 1 8.889397981649633 14.54150623307136 17.499999999999996
334 2 6.049729184791416 14.612788126299442 17.499999999999996
335 1 6.72878041666322 13.36535499363176 17.499999999999996
336 2 3.8891116198050057 13.436636886859848 17.499999999999996
337 1 4.568162851676808 12.189203754192167 17.499999999999996
338 2 1.728494054818592 12.260485647420255 17.499999999999996
339 1 2.4075452866903952 11.013052514752571 17.499999999999996
340 2 -0.4321235101678208 11.084334407980657 17.499999999999996
341 1 0.24692772170398455 9.836901275312975 17.499999999999996
342 2 -2.5927410751542315 9.908183168541063 17.499999999999996
343 1 -1.913689843282427 8.66075003587338 17.499999999999996
344 2 -4.753358640140643 8.732031929101467 17.499999999999996
345 1 -4.074307408268839 7.484598796433785 17.499999999999996
346 2 42.10117655487447 7.555880689661872 17.499999999999996
347 1 30.557305561939753 28.762243946295545 17.499999999999996
348 2 27.717636765081533 28.83352583952363 17.499999999999996
349 1 28.396687996953332 27.58609270685596 17.499999999999996
350 2 25.557019200095112 27.65737460008404 17.499999999999996
351 1 26.23607043196693 26.40994146741636 17.499999999999996
352 2 23.396401635108717 26.481223360644453 17.499999999999996
353 1 24.075452866980516 25.233790227976762 17.499999999999996
354 2 21.235784070122293 25.30507212120485 17.499999999999996
355 1 21.9148353019941 24.057638988537168 17.499999999999996
356 2 19.075166505135883 24.128920881765257 17.499999999999996
357 1 19.754217737007693 22.88148774909758 17.499999999999996
358 2 16.914548940149473 22.95276964232566 17.499999999999996
359 1 17.593600172021276 21.70533650965798 17.499999999999996
360 2 14.753931375163063 21.77661840288607 17.499999999999996
361 1 15.432982607034864 20.529185270218385 17.499999999999996
362 2 12.59331381017665 20.600467163446474 17.499999999999996
363 1 13.272365042048454 19.353034030778783 17.499999999999996
364 2 10.432696245190236 19.424315924006873 17.499999999999996
365 1 11.111747477062044 18.1768827913392 17.499999999999996
366 2 8.272078680203824 18.248164684567286 17.499999999999996
367 1 8.951129912075631 17.0007315518996 17.499999999999996
368 2 6.1114611152174145 17.072013445127688 17.499999999999996
369 1 6.790512347089219 15.824580312460002 17.499999999999996
370 2 3.9508435502309998 15.89586220568809 17.499999999999996
371 1 4.629894782102804 14.64842907302041 17.499999999999996
372 2 1.79022598524459 14.719710966248497 17.499999999999996
373 1 2.4692772171163933 13.472277833580813 17.499999999999996
374 2 -0.3703915797418238 13.543559726808898 17.499999999999996
375 1 0.30865965212997937 12.296126594141219 17.499999999999996
376 2 -2.531009144728235 12.367408487369307 17.499999999999996
377 1 -1.8519579128564296 11.119975354701626 17.499999999999996
378 2 -4.691626709714646 11.191257247929709 17.499999999999996
379 1 -4.012575477842843 9.943824115262029 17.499999999999996
380 2 42.162908485300456 10.015106008490116 17.499999999999996
381 1 30.619037492365752 31.22146926512379 17.499999999999996
382 2 27.77936869550753 31.29275115835188 17.499999999999996
383 1 28.45841992737934 30.045318025684203 17.499999999999996
384 2 25.618751130521126 30.116599918912286 17.499999999999996
385 1 26.297802362392915 28.8691667862446 17.499999999999996
386 2 23.458133565534702 28.940448679472688 17.499999999999996
387 1 24.13718479740651 27.693015546805004 17.499999999999996
388 2 21.297516000548303 27.76429744003309 17.499999999999996
389 1 21.97656723242009 26.51686430736541 17.499999999999996
390 2 19.136898435561882 26.5881462005935 17.499999999999996
391 1 19.815949667433692 25.34071306792582 17.499999999999996
392 2 16.976280870575472 25.41199496115391 17.499999999999996
393 1 17.65533210244728 24.16456182848622 17.499999999999996
394 2 14.815663305589059 24.235843721714318 17.499999999999996
395 1 15.49471453746086 22.988410589046627 17.499999999999996
396 2 12.655045740602642 23.059692482274716 17.499999999999996
397 1 13.334096972474448 21.81225934960703 17.499999999999996
398 2 10.494428175616234 21.88354124283512 17.499999999999996
399 1 11.173479407488038 20.63610811016744 17.499999999999996
400 2 8.333810610629824 20.707390003395528 17.499999999999996
401 1 9.012861842501627 19.459956870727847 17.499999999999996
402 2 6.173193045643412 19.531238763955937 17.499999999999996
403 1 6.852244277515211 18.283805631288246 17.499999999999996
404 2 4.012575480656997 18.355087524516332 17.499999999999996
405 1 4.6916267125288 17.10765439184865 17.499999999999996
406 2 1.8519579156705828 17.178936285076738 17.499999999999996
407 1 2.5310091475423873 15.93150315240906 17.499999999999996
408 2 -0.30865964931582723 16.002785045637147 17.499999999999996
409 1 0.3703915825559777 14.755351912969463 17.499999999999996
410 2 -2.469277214302238 14.82663380619755 17.499999999999996
411 1 -1.7902259824304345 13.579200673529872 17.499999999999996
412 2 -4.62989477928865 13.650482566757956 17.499999999999996
413 1 -3.9508435474168473 12.40304943409027 17.499999999999996
414 2 -6.790512344275063 12.474331327318358 17.499999999999996
415 1 -6.111461112403259 11.226898194650682 17.499999999999996
416 2 40.06402285074005 11.298180087878766 17.499999999999996
417 1 28.52015185780533 32.504543344512456 17.499999999999996
418 2 25.68048306094712 32.57582523774053 17.499999999999996
419 1 26.359534292818914 31.328392105072844 17.499999999999996
420 2 23.51986549596071 31.39967399830093 17.499999999999996
421 1 24.19891672783251 30.15224086563325 17.499999999999996
422 2 21.35924793097429 30.22352275886134 17.499999999999996
423 1 22.038299162846094 28.976089626193655 17.499999999999996
424 2 19.198630365987867 29.04737151942174 17.499999999999996
425 1 19.87768159785969 27.79993838675406 17.499999999999996
426 2 17.038012801001475 27.871220279982158 17.499999999999996
427 1 17.717064032873267 26.623787147314477 17.499999999999996
428 2 14.877395236015047 26.695069040542556 17.499999999999996
429 1 15.556446467886856 25.44763590787487 17.499999999999996
430 2 12.716777671028645 25.51891780110296 17.499999999999996
431 1 13.395828902900446 24.271484668435274 17.499999999999996
432 2 10.556160106042226 24.34276656166336 17.499999999999996
433 1 11.235211337914032 23.095333428995684 17.499999999999996
434 2 8.395542541055821 23.166615322223773 17.499999999999996
435 1 9.074593772927622 21.919182189556096 17.499999999999996
436 2 6.234924976069406 21.990464082784175 17.499999999999996
437 1 6.913976207941209 20.743030950116488 17.499999999999996
438 2 4.074307411082995 20.814312843344577 17.499999999999996
439 1 4.7533586429547965 19.566879710676893 17.499999999999996
440 2 1.913689846096577 19.63816160390498 17.499999999999996
441 1 2.5927410779683853 18.390728471237306 17.499999999999996
442 2 -0.2469277188898311 18.46201036446539 17.499999999999996
443 1 0.43212351298197116 17.21457723179771 17.499999999999996
444 2 -2.4075452838762437 17.285859125025794 17.499999999999996
445 1 -1.7284940520044414 16.03842599235811 17.499999999999996
446 2 -4.568162848862656 16.1097078855862 17.499999999999996
447 1 -3.8891116169908506 14.862274752918518 17.499999999999996
448 2 -6.728780413849067 14.933556646146606 17.499999999999996
449 1 -6.049729181977262 13.686123513478924 17.499999999999996
450 2 40.12575478116604 13.757405406707008 17.499999999999996
451 1 28.58188378823133 34.96376866334069 17.499999999999996
452 2 25.74221499137311 35.03505055656878 17.499999999999996
453 1 26.421266223244924 33.78761742390108 17.499999999999996
454 2 23.581597426386693 33.85889931712918 17.499999999999996
455 1 24.260648658258496 32.61146618446149 17.499999999999996
456 2 21.420979861400276 32.682748077689574 17.499999999999996
457 1 22.1000310932721 31.4353149450219 17.499999999999996
458 2 19.26036229641388 31.506596838249987 17.499999999999996
459 1 19.93941352828568 30.259163705582306 17.499999999999996
460 2 17.09974473142746 30.330445598810396 17.499999999999996
461 1 17.778795963299267 29.08301246614272 17.499999999999996
462 2 14.939127166441052 29.154294359370798 17.499999999999996
463 1 15.618178398312857 27.906861226703114 17.499999999999996
464 2 12.778509601454637 27.978143119931204 17.499999999999996
465 1 13.45756083332644 26.73070998726352 17.499999999999996
466 2 10.617892036468223 26.801991880491606 17.499999999999996
467 1 11.29694326834003 25.554558747823936 17.499999999999996
468 2 8.457274471481806 25.625840641052015 17.499999999999996
469 1 9.136325703353616 24.378407508384335 17.499999999999996
470 2 6.296656906495402 24.449689401612417 17.499999999999996
471 1 6.975708138367204 23.202256268944733 17.499999999999996
472 2 4.136039341508988 23.273538162172823 17.499999999999996
473 1 4.8150905733807905 22.026105029505143 17.499999999999996
474 2 1.9754217765225737 22.097386922733225 17.499999999999996
475 1 2.6544730083943797 20.849953790065545 17.499999999999996
476 2 -0.1851957884638319 20.921235683293638 17.499999999999996
477 1 0.4938554434079691 19.67380255062595 17.499999999999996
478 2 -2.3458133534502466 19.745084443854036 17.499999999999996
479 1 -1.6667621215784447 18.497651311186356 17.499999999999996
480 2 -4.50643091843666 18.568933204414442 17.499999999999996
481 1 -3.827379686564854 17.32150007174676 17.499999999999996
482 2 -6.667048483423071 17.392781964974844 17.499999999999996