ITEM: TIMESTEP
1666
ITEM: NUMBER OF ATOMS
3603
ITEM: BOX BOUNDS xy xz yz pp pp pp
0.0000000000000000e+00 1.1808000000000000e+02 3.9359999999999999e+01
0.0000000000000000e+00 6.8173519787136001e+01 0.0000000000000000e+00
0.0000000000000000e+00 3.5000000000000000e+01 0.0000000000000000e+00
ITEM: ATOMS id type x y z
1 1 118.08 68.1735 7.53403
2 2 3.27817 1.89265 5.83797
3 3 3.35456 1.93676 9.12607
4 1 1.65818 2.87162 7.49618
5 2 4.91571 4.73024 5.72801
6 3 5.02696 4.83598 9.01383
7 1 3.31436 5.73893 7.38517
8 2 6.55184 7.56557 5.55378
9 3 6.69097 7.72242 8.83654
10 1 4.96648 8.59844 7.20944
11 2 8.18734 10.3995 5.33027
12 3 8.34394 10.591 8.61026
13 1 6.61328 11.4483 6.98447
14 2 9.82348 13.2341 5.07841
15 3 9.98557 13.4403 8.35693
16 1 8.2548 14.2891 6.7317
17 2 11.4613 16.0712 4.82129
18 3 11.6178 16.2729 8.10008
19 1 9.89215 17.1229 6.47446
20 2 13.101 18.9116 4.57961
21 3 13.2434 19.0931 7.86006
22 1 11.5268 19.9523 6.23335
23 2 14.7425 21.7549 4.36883
24 3 14.8651 21.9055 7.65158
25 1 13.1599 22.7794 6.02349
26 2 16.3853 24.6003 4.1988
27 3 16.4849 24.7134 7.48383
28 1 14.7922 25.6055 5.85444
29 2 18.0288 27.4469 4.07497
30 3 18.1039 27.519 7.36182
31 1 16.4241 28.4312 5.73142
32 2 19.6726 30.2942 3.99998
33 3 19.7226 30.3235 7.28797
34 1 18.0558 31.2568 5.65694
35 2 21.3167 33.1418 3.97488
36 3 21.3414 33.1276 7.26326
37 1 19.6873 34.0825 5.63202
38 2 22.9607 35.9894 3.99998
39 3 22.9604 35.9315 7.28797
40 1 21.3187 36.9083 5.65694
41 2 24.6046 38.8367 4.07497
42 3 24.5798 38.7356 7.36182
43 1 22.9499 39.7342 5.73142
44 2 26.2482 41.6833 4.1988
45 3 26.2 41.5405 7.48383
46 1 24.5811 42.5604 5.85444
47 2 27.891 44.5287 4.36883
48 3 27.8218 44.3472 7.65158
49 1 26.2124 45.387 6.02349
50 2 29.5326 47.3719 4.57961
51 3 29.4465 47.1578 7.86006
52 1 27.8442 48.2149 6.23335
53 2 31.1725 50.2122 4.82129
54 3 31.0761 49.9758 8.10008
55 1 29.4772 51.0452 6.47446
56 2 32.8106 53.0491 5.07841
57 3 32.7131 52.8056 8.35693
58 1 31.1127 53.8801 6.7317
59 2 34.4474 55.8833 5.33027
60 3 34.3599 55.652 8.61026
61 1 32.7521 56.7221 6.98447
62 2 36.0839 58.7167 5.55378
63 3 36.0177 58.5178 8.83654
64 1 34.3968 59.5732 7.20944
65 2 37.7213 61.5513 5.72801
66 3 37.6854 61.4021 9.01383
67 1 36.0471 62.4337 7.38517
68 2 39.36 64.3882 5.83797
69 3 39.36 64.3 9.12607
70 1 37.7022 65.3017 7.49618
71 2 40.9993 67.2271 5.87545
72 3 41.0376 67.2049 9.16439
73 1 3.31598 0.000212991 7.49618
74 2 6.55437 1.89201 5.72801
75 3 6.70156 1.93548 9.01383
76 1 4.97214 2.87066 7.42105
77 2 8.19034 4.7287 5.58633
78 3 8.36566 4.82991 8.86956
79 1 6.62418 5.73553 7.27625
80 2 9.82543 7.56363 5.38814
81 3 10.0188 7.70985 8.66861
82 1 8.27077 8.59183 7.07384
83 2 11.4608 10.3982 5.1515
84 3 11.6602 10.5717 8.43003
85 1 9.91173 11.4387 6.83269
86 2 13.0977 13.2342 4.89843
87 3 13.2915 13.4156 8.17656
88 1 11.5481 14.2773 6.57569
89 2 14.7365 16.073 4.65073
90 3 14.9157 16.2449 7.92998
91 1 13.1815 17.1101 6.32515
92 2 16.3772 18.9149 4.42624
93 3 16.5357 19.0637 7.70757
94 1 14.8133 19.9394 6.09892
95 2 18.0194 21.7594 4.2374
96 3 18.1539 21.8759 7.52107
97 1 16.4444 22.7669 5.90918
98 2 19.6625 24.6056 4.09169
99 3 19.7715 24.6843 7.37743
100 1 18.0755 25.5934 5.76312
101 2 21.3062 27.4527 3.9931
102 3 21.3895 27.4905 7.28032
103 1 19.7067 28.4196 5.66442
104 2 22.9502 30.3003 3.94346
105 3 23.0079 30.2957 7.23144
106 1 21.338 31.2456 5.61478
107 2 24.5943 33.1479 3.94346
108 3 24.6271 33.1002 7.23144
109 1 22.9696 34.0715 5.61478
110 2 26.2384 35.9955 3.9931
111 3 26.2472 35.9044 7.28032
112 1 24.6013 36.8972 5.66442
113 2 27.8822 38.8425 4.09169
114 3 27.8686 38.7087 7.37743
115 1 26.2332 39.723 5.76312
116 2 29.5255 41.6886 4.2374
117 3 29.4918 41.5139 7.52107
118 1 27.8655 42.5488 5.90918
119 2 31.1678 44.5329 4.42624
120 3 31.1182 44.3213 7.70757
121 1 29.4986 45.3751 6.09892
122 2 32.8086 47.3748 4.65073
123 3 32.7493 47.1337 7.92998
124 1 31.1329 48.203 6.32515
125 2 34.4477 50.2135 4.89843
126 3 34.3875 49.9549 8.17656
127 1 32.7695 51.0339 6.57569
128 2 36.0854 53.0491 5.1515
129 3 36.0347 52.7897 8.43003
130 1 34.4097 53.8704 6.83269
131 2 37.7224 55.8826 5.38814
132 3 37.6924 55.6421 8.66861
133 1 36.0546 56.7149 7.07384
134 2 39.36 58.7161 5.58633
135 3 39.36 58.5137 8.86956
136 1 37.705 59.569 7.27625
137 2 40.9987 61.5513 5.72801
138 3 41.0346 61.4021 9.01383
139 1 39.36 62.4322 7.42105
140 2 42.6379 64.3886 5.80154
141 3 42.7123 64.3017 9.08887
142 1 41.0178 65.3017 7.49618
143 2 44.2768 67.2272 5.80154
144 3 44.3892 67.2062 9.08887
145 1 6.62724 0.000855779 7.38517
146 2 9.8279 1.89127 5.55378
147 3 10.0333 1.93334 8.83654
148 1 8.2792 2.86895 7.27625
149 2 11.463 4.72725 5.38814
150 3 11.6863 4.82157 8.66861
151 1 9.92566 5.73058 7.10447
152 2 13.0982 7.56226 5.17649
153 3 13.3277 7.69473 8.45504
154 1 11.5663 8.58359 6.88526
155 2 14.7346 10.3977 4.93826
156 3 14.9587 10.5507 8.21601
157 1 13.2021 11.4279 6.63934
158 2 16.3729 13.2352 4.69456
159 3 16.582 13.3908 7.97291
160 1 14.8346 14.2652 6.38896
161 2 18.013 16.0756 4.4645
162 3 18.2008 16.2181 7.74456
163 1 16.4652 17.0977 6.15384
164 2 19.6546 18.9187 4.26276
165 3 19.8176 19.0365 7.54506
166 1 18.0953 19.9273 5.94868
167 2 21.2974 21.7639 4.09915
168 3 21.4341 21.8492 7.38363
169 1 19.7255 22.7553 5.78296
170 2 22.9408 24.6106 3.97947
171 3 23.0511 24.6584 7.2657
172 1 21.356 25.5824 5.6621
173 2 24.5847 27.4581 3.90675
174 3 24.6691 27.4656 7.19409
175 1 22.9871 28.4091 5.58881
176 2 26.2288 30.3058 3.88238
177 3 26.2882 30.2715 7.17009
178 1 24.6185 31.2355 5.56427
179 2 27.8729 33.1535 3.90675
180 3 27.9086 33.0767 7.19409
181 1 26.2505 34.0616 5.58881
182 2 29.517 36.0009 3.97947
183 3 29.5307 35.8815 7.2657
184 1 27.883 36.8874 5.6621
185 2 31.1605 38.8475 4.09915
186 3 31.1551 38.6865 7.38363
187 1 29.5161 39.7131 5.78296
188 2 32.8033 41.6928 4.26276
189 3 32.7827 41.4927 7.54506
190 1 31.1502 42.5389 5.94868
191 2 34.4446 44.536 4.4645
192 3 34.4151 44.3021 7.74456
193 1 32.7856 45.3654 6.15384
194 2 36.0844 47.3766 4.69456
195 3 36.0543 47.1177 7.97291
196 1 34.4233 48.1938 6.38896
197 2 37.7226 50.2141 4.93826
198 3 37.7021 49.9436 8.21601
199 1 36.0642 51.0262 6.63934
200 2 39.36 53.049 5.17649
201 3 39.36 52.7841 8.45504
202 1 37.7096 53.865 6.88526
203 2 40.9976 55.8826 5.38814
204 3 41.0276 55.6421 8.66861
205 1 39.36 56.7124 7.10447
206 2 42.6361 58.7167 5.55378
207 3 42.7023 58.5178 8.83654
208 1 41.015 59.569 7.27625
209 2 44.2752 61.5523 5.65883
210 3 44.3803 61.4078 8.94339
211 1 42.6729 62.4337 7.38517
212 2 45.9141 64.3895 5.69475
213 3 46.0573 64.3068 8.97999
214 1 44.3311 65.3034 7.42239
215 2 47.5518 67.2274 5.65883
216 3 47.7295 67.2086 8.94339
217 1 9.9297 0.00187514 7.20944
218 2 13.0999 1.89068 5.33027
219 3 13.344 1.93057 8.61026
220 1 11.5761 2.86678 7.07384
221 2 14.7355 4.7263 5.1515
222 3 14.9854 4.81214 8.43003
223 1 13.2168 5.72495 6.88526
224 2 16.372 7.5617 4.93826
225 3 16.6165 7.67921 8.21601
226 1 14.8524 8.57503 6.66105
227 2 18.0102 10.3982 4.70935
228 3 18.2398 10.5307 7.98736
229 1 16.4844 11.4175 6.42162
230 2 19.65 13.2369 4.4835
231 3 19.858 13.3683 7.7628
232 1 18.1144 14.2541 6.18696
233 2 21.2913 16.0783 4.27671
234 3 21.474 16.1948 7.55797
235 1 19.7437 17.0866 5.97359
236 2 22.9338 18.9222 4.10091
237 3 23.0896 19.0135 7.3843
238 1 21.3731 19.9167 5.79332
239 2 24.577 21.768 3.96401
240 3 24.7058 21.827 7.2493
241 1 23.003 22.7454 5.65365
242 2 26.2207 24.615 3.87072
243 3 26.3233 24.6372 7.15738
244 1 24.6337 25.5732 5.55882
245 2 27.8648 27.4627 3.82355
246 3 27.9422 27.4453 7.11093
247 1 26.265 28.4004 5.51097
248 2 29.509 30.3105 3.82355
249 3 29.5628 30.2522 7.11093
250 1 27.897 31.2272 5.51097
251 2 31.1531 33.1582 3.87072
252 3 31.1852 33.0583 7.15738
253 1 29.5298 34.0536 5.55882
254 2 32.7969 36.0052 3.96401
255 3 32.8102 35.8642 7.2493
256 1 31.1635 36.8796 5.65365
257 2 34.4398 38.8512 4.10091
258 3 34.4387 38.6706 7.3843
259 1 32.7982 39.7055 5.79332
260 2 36.0815 41.6955 4.27671
261 3 36.0719 41.4791 7.55797
262 1 34.4344 42.5317 5.97359
263 2 37.7215 44.5377 4.4835
264 3 37.7118 44.2918 7.7628
265 1 36.0728 45.359 6.18696
266 2 39.36 47.3772 4.70935
267 3 39.36 47.1121 7.98736
268 1 37.7143 48.1889 6.42162
269 2 40.9974 50.2141 4.93826
270 3 41.0179 49.9436 8.21601
271 1 39.36 51.0235 6.66105
272 2 42.6346 53.0491 5.1515
273 3 42.6853 52.7897 8.43003
274 1 41.0104 53.865 6.88526
275 2 44.2726 55.8833 5.33027
276 3 44.3601 55.652 8.61026
277 1 42.6654 56.7149 7.07384
278 2 45.9113 58.718 5.45869
279 3 46.0384 58.5294 8.74018
280 1 44.3232 59.5732 7.20944
281 2 47.55 61.5538 5.52566
282 3 47.7157 61.4186 8.8081
283 1 45.9816 62.4381 7.28015
284 2 49.1878 64.3906 5.52566
285 3 49.3878 64.3147 8.8081
286 1 47.6378 65.3068 7.28015
287 2 50.8244 67.2277 5.45869
288 3 51.0513 67.2119 8.74018
289 1 13.2212 0.00309911 6.98447
290 2 16.3728 1.89032 5.07841
291 3 16.6324 1.9276 8.35693
292 1 14.8621 2.86447 6.83269
293 2 18.01 4.72586 4.89843
294 3 18.264 4.80294 8.17656
295 1 16.4979 5.71942 6.63934
296 2 19.6485 7.56171 4.69456
297 3 19.8878 7.66506 7.97291
298 1 18.1301 8.56715 6.42162
299 2 21.2885 10.399 4.4835
300 3 21.5063 10.5134 7.7628
301 1 19.7599 11.4084 6.198
302 2 22.9298 13.2385 4.2811
303 3 23.1221 13.3496 7.56197
304 1 21.3889 14.2447 5.98545
305 2 24.5721 16.0806 4.10063
306 3 24.7373 16.176 7.3834
307 1 23.0178 17.0775 5.79757
308 2 26.2152 18.925 3.95201
309 3 26.3531 18.9953 7.23663
310 1 24.6473 19.9081 5.644
311 2 27.8588 21.7712 3.84193
312 3 27.9701 21.8097 7.12806
313 1 26.2776 22.7374 5.53092
314 2 29.5028 24.6185 3.77446
315 3 29.5888 24.621 7.06158
316 1 27.9087 25.5659 5.46189
317 2 31.147 27.4663 3.75176
318 3 31.2093 27.4303 7.03921
319 1 29.5407 28.3937 5.4387
320 2 32.7912 30.3141 3.77446
321 3 32.8319 30.2383 7.06158
322 1 31.1737 31.2209 5.46189
323 2 34.435 33.1615 3.84193
324 3 34.4573 33.0458 7.12806
325 1 32.8076 34.0478 5.53092
326 2 36.078 36.008 3.95201
327 3 36.0861 35.8535 7.23663
328 1 34.4427 36.8743 5.644
329 2 37.7198 38.8532 4.10063
330 3 37.7199 38.6624 7.3834
331 1 36.0794 39.7008 5.79757
332 2 39.36 41.6965 4.2811
333 3 39.36 41.4744 7.56197
334 1 37.7182 42.5279 5.98545
335 2 40.9985 44.5377 4.4835
336 3 41.0082 44.2918 7.7628
337 1 39.36 45.3567 6.198
338 2 42.6356 47.3766 4.69456
339 3 42.6657 47.1177 7.97291
340 1 41.0057 48.1889 6.42162
341 2 44.2723 50.2135 4.89843
342 3 44.3325 49.9549 8.17656
343 1 42.6558 51.0262 6.63934
344 2 45.9094 53.0491 5.07841
345 3 46.0069 52.8056 8.35693
346 1 44.3103 53.8704 6.83269
347 2 47.5472 55.8841 5.21919
348 3 47.6851 55.6701 8.49844
349 1 45.9679 56.7221 6.98447
350 2 49.1854 58.7194 5.30872
351 3 49.3626 58.5469 8.58864
352 1 47.6262 59.5808 7.08116
353 2 50.8233 61.5552 5.33943
354 3 51.0348 61.4331 8.61961
355 1 49.2825 62.4448 7.11434
356 2 52.4602 64.3915 5.30872
357 3 52.6982 64.3243 8.58864
358 1 50.9346 65.3111 7.08116
359 2 54.0965 67.2279 5.21919
360 3 54.3509 67.2155 8.49844
361 1 16.5021 0.00432365 6.7317
362 2 19.6487 1.89013 4.82129
363 3 19.9016 1.92483 8.10008
364 1 18.1386 2.8623 6.57569
365 2 21.2879 4.72571 4.65073
366 3 21.5263 4.79491 7.92998
367 1 19.7713 5.71451 6.38896
368 2 22.9283 7.56192 4.4645
369 3 23.1457 7.65332 7.74456
370 1 21.4016 8.5605 6.18696
371 2 24.5699 10.3997 4.27671
372 3 24.7621 10.4997 7.55797
373 1 23.0307 11.401 5.98545
374 2 26.2123 13.2398 4.10063
375 3 26.3774 13.3351 7.3834
376 1 24.6595 14.2372 5.79861
377 2 27.8553 16.0823 3.94751
378 3 27.9931 16.1618 7.23188
379 1 26.2888 17.0704 5.63778
380 2 29.4989 18.927 3.82594
381 3 29.61 18.982 7.11179
382 1 27.9189 19.9016 5.51118
383 2 31.1428 21.7734 3.74188
384 3 31.2285 21.7975 7.02885
385 1 29.5498 22.7316 5.4242
386 2 32.787 24.6209 3.69899
387 3 32.8489 24.61 6.98656
388 1 31.1818 25.5606 5.37999
389 2 34.4312 27.4687 3.69899
390 3 34.4716 27.4205 6.98656
391 1 32.8147 28.389 5.37999
392 2 36.0751 30.3163 3.74188
393 3 36.0971 30.2301 7.02885
394 1 34.4488 31.2168 5.4242
395 2 37.7182 33.1632 3.82594
396 3 37.7261 33.0395 7.11179
397 1 36.0841 34.0443 5.51118
398 2 39.36 36.009 3.94751
399 3 39.36 35.8498 7.23188
400 1 37.721 36.8716 5.63778
401 2 41.0002 38.8532 4.10063
402 3 41.0001 38.6624 7.3834
403 1 39.36 39.6991 5.79861
404 2 42.6385 41.6955 4.27671
405 3 42.6481 41.4791 7.55797
406 1 41.0018 42.5279 5.98545
407 2 44.2754 44.536 4.4645
408 3 44.3049 44.3021 7.74456
409 1 42.6472 45.359 6.18696
410 2 45.9114 47.3748 4.65073
411 3 45.9707 47.1337 7.92998
412 1 44.2967 48.1938 6.38896
413 2 47.5475 50.2122 4.82129
414 3 47.6439 49.9758 8.10008
415 1 45.9505 51.0339 6.57569
416 2 49.1842 53.0485 4.96278
417 3 49.3213 52.8292 8.24139
418 1 47.6073 53.8801 6.7317
419 2 50.8216 55.8844 5.06392
420 3 50.9984 55.6936 8.34253
421 1 49.2652 56.7326 6.84374
422 2 52.4591 58.7201 5.11662
423 3 52.6706 58.5677 8.39526
424 1 50.9214 59.5906 6.90226
425 2 54.0964 61.556 5.11662
426 3 54.3341 61.4491 8.39526
427 1 52.5738 62.4525 6.90226
428 2 55.7335 64.3921 5.06392
429 3 55.9871 64.3343 8.34253
430 1 54.2207 65.3158 6.84374
431 2 57.3707 67.228 4.96278
432 3 57.6292 67.219 8.24139
433 1 19.7749 0.00541832 6.47446
434 2 22.9284 1.89004 4.57961
435 3 23.1569 1.92254 7.86006
436 1 21.4085 2.86044 6.32515
437 2 24.5694 4.72564 4.42624
438 3 24.7775 4.78849 7.70757
439 1 23.0396 5.71048 6.15384
440 2 26.2114 7.56206 4.26276
441 3 26.3949 7.64429 7.54506
442 1 24.6693 8.55523 5.97359
443 2 27.854 10.4001 4.10091
444 3 28.0109 10.4894 7.3843
445 1 26.2984 11.3953 5.79757
446 2 29.4971 13.2405 3.95201
447 3 29.6269 13.3248 7.23663
448 1 27.9278 14.2316 5.63778
449 2 31.1407 16.0833 3.82594
450 3 31.2439 16.152 7.11179
451 1 29.5578 17.0652 5.50406
452 2 32.7847 18.9282 3.73046
453 3 32.8623 18.9731 7.01738
454 1 31.1887 19.897 5.40373
455 2 34.4288 21.7748 3.67104
456 3 34.4827 21.7897 6.9587
457 1 32.8206 22.7276 5.34169
458 2 36.073 24.6222 3.65089
459 3 36.1054 24.6036 6.9388
460 1 34.4535 25.5573 5.32072
461 2 37.7169 27.4699 3.67104
462 3 37.7309 27.4157 6.9587
463 1 36.0876 28.3863 5.34169
464 2 39.36 30.3171 3.73046
465 3 39.36 30.2274 7.01738
466 1 37.723 31.2148 5.40373
467 2 41.0018 33.1632 3.82594
468 3 40.9939 33.0395 7.11179
469 1 39.36 34.0431 5.50406
470 2 42.642 36.008 3.95201
471 3 42.6339 35.8535 7.23663
472 1 40.999 36.8716 5.63778
473 2 44.2802 38.8512 4.10091
474 3 44.2813 38.6706 7.3843
475 1 42.6406 39.7008 5.79757
476 2 45.9167 41.6928 4.26276
477 3 45.9373 41.4927 7.54506
478 1 44.2856 42.5317 5.97359
479 2 47.5522 44.5329 4.42624
480 3 47.6018 44.3213 7.70757
481 1 45.9344 45.3654 6.15384
482 2 49.1874 47.3719 4.57961
483 3 49.2735 47.1578 7.86006
484 1 47.5871 48.203 6.32515
485 2 50.823 50.2099 4.7118
486 3 50.9494 50.003 7.99142
487 1 49.2428 51.0452 6.47446
488 2 52.4594 53.0471 4.81341
489 3 52.6254 52.8569 8.09232
490 1 50.8997 53.8925 6.59026
491 2 54.0964 55.8838 4.87733
492 3 54.2971 55.7192 8.15574
493 1 52.5556 56.7447 6.66356
494 2 55.7338 58.7201 4.89914
495 3 55.9608 58.589 8.17737
496 1 54.208 59.601 6.68865
497 2 57.3714 61.5563 4.87733
498 3 57.6143 61.4647 8.15574
499 1 55.8555 62.4602 6.66356
500 2 59.0096 64.3923 4.81341
501 3 59.2573 64.3437 8.09232
502 1 57.4976 65.3203 6.59026
503 2 60.6485 67.228 4.7118
504 3 60.8908 67.2221 7.99142
505 1 23.0426 0.00633904 6.23335
506 2 26.2115 1.88997 4.36883
507 3 26.4033 1.92083 7.65158
508 1 24.6747 2.85896 6.09892
509 2 27.8539 4.72557 4.2374
510 3 28.022 4.78375 7.52107
511 1 26.3052 5.70738 5.94868
512 2 29.4968 7.56208 4.09915
513 3 29.639 7.63785 7.38363
514 1 27.9349 8.55129 5.79332
515 2 31.1401 10.4003 3.96401
516 3 31.2556 10.4824 7.2493
517 1 29.5646 11.3911 5.644
518 2 32.7838 13.2408 3.84193
519 3 32.8729 13.318 7.12806
520 1 31.1947 14.2276 5.51118
521 2 34.4278 16.0838 3.74188
522 3 34.4914 16.1459 7.02885
523 1 32.8257 17.0617 5.40373
524 2 36.0719 18.9288 3.67104
525 3 36.1118 18.968 6.9587
526 1 34.4575 19.8941 5.32839
527 2 37.7161 21.7754 3.63438
528 3 37.7345 21.786 6.92241
529 1 36.0905 22.7253 5.28962
530 2 39.36 24.6227 3.63438
531 3 39.36 24.6015 6.92241
532 1 37.7246 25.5556 5.28962
533 2 41.0031 27.4699 3.67104
534 3 40.9891 27.4157 6.9587
535 1 39.36 28.3854 5.32839
536 2 42.6449 30.3163 3.74188
537 3 42.6229 30.2301 7.02885
538 1 40.997 31.2148 5.40373
539 2 44.285 33.1615 3.84193
540 3 44.2627 33.0458 7.12806
541 1 42.6359 34.0443 5.51118
542 2 45.9231 36.0052 3.96401
543 3 45.9098 35.8642 7.2493
544 1 44.2773 36.8743 5.644
545 2 47.5595 38.8475 4.09915
546 3 47.5649 38.6865 7.38363
547 1 45.9218 39.7055 5.79332
548 2 49.1945 41.6886 4.2374
549 3 49.2282 41.5139 7.52107
550 1 47.5698 42.5389 5.94868
551 2 50.829 44.5287 4.36883
552 3 50.8982 44.3472 7.65158
553 1 49.2214 45.3751 6.09892
554 2 52.4637 47.3681 4.48452
555 3 52.5723 47.1869 7.7662
556 1 50.8758 48.2149 6.23335
557 2 54.0992 50.2068 4.57724
558 3 54.2467 50.0329 7.85778
559 1 52.5315 51.0584 6.34267
560 2 55.7355 53.0449 4.64176
561 3 55.9174 52.8853 7.92128
562 1 54.1866 53.9057 6.41963
563 2 57.3727 55.8825 4.67478
564 3 57.5808 55.7439 7.95371
565 1 55.8387 56.7567 6.45933
566 2 59.0107 58.7196 4.67478
567 3 59.2348 58.6086 7.95371
568 1 57.4866 59.6109 6.45933
569 2 60.6495 61.5562 4.64176
570 3 60.8787 61.4785 7.92128
571 1 59.1295 62.4672 6.41963
572 2 62.2892 64.3924 4.57724
573 3 62.5136 64.3516 7.85778
574 1 60.7679 65.3242 6.34267
575 2 63.9299 67.2281 4.48452
576 3 64.1411 67.2247 7.7662
577 1 26.3075 0.00708676 6.02349
578 2 29.4971 1.88993 4.1988
579 3 29.6449 1.91965 7.48383
580 1 27.9389 2.85787 5.90918
581 2 31.1403 4.72546 4.09169
582 3 31.263 4.78051 7.37743
583 1 29.5694 5.70514 5.78296
584 2 32.7838 7.562 3.97947
585 3 32.8804 7.63362 7.2657
586 1 31.1996 8.54853 5.65365
587 2 34.4276 10.4003 3.87072
588 3 34.4981 10.4781 7.15738
589 1 32.83 11.3883 5.53092
590 2 36.0716 13.2409 3.77446
591 3 36.1169 13.3141 7.06158
592 1 34.461 14.2251 5.4242
593 2 37.7158 16.084 3.69899
594 3 37.7373 16.143 6.98656
595 1 36.0929 17.0597 5.34169
596 2 39.36 18.929 3.65089
597 3 39.36 18.9664 6.9388
598 1 37.7259 19.8926 5.28962
599 2 41.0039 21.7754 3.63438
600 3 40.9855 21.786 6.92241
601 1 39.36 22.7245 5.27183
602 2 42.647 24.6222 3.65089
603 3 42.6146 24.6036 6.9388
604 1 40.9954 25.5556 5.28962
605 2 44.2888 27.4687 3.69899
606 3 44.2484 27.4205 6.98656
607 1 42.6324 28.3863 5.34169
608 2 45.9288 30.3141 3.77446
609 3 45.8881 30.2383 7.06158
610 1 44.2712 31.2168 5.4242
611 2 47.5669 33.1582 3.87072
612 3 47.5348 33.0583 7.15738
613 1 45.9124 34.0478 5.53092
614 2 49.203 36.0009 3.97947
615 3 49.1893 35.8815 7.2657
616 1 47.5565 36.8796 5.65365
617 2 50.8378 38.8425 4.09169
618 3 50.8514 38.7087 7.37743
619 1 49.2039 39.7131 5.78296
620 2 52.4718 41.6833 4.1988
621 3 52.52 41.5405 7.48383
622 1 50.8545 42.5488 5.90918
623 2 54.1059 44.5237 4.29354
624 3 54.1923 44.3768 7.57758
625 1 52.5076 45.387 6.02349
626 2 55.7406 47.3636 4.37066
627 3 55.865 47.2174 7.65344
628 1 54.162 48.228 6.11872
629 2 57.3763 50.2032 4.42694
630 3 57.5344 50.0622 7.70844
631 1 55.8159 51.0718 6.18971
632 2 59.0131 53.0424 4.46093
633 3 59.1971 52.9115 7.74145
634 1 57.4676 53.9183 6.23333
635 2 60.6512 55.881 4.47227
636 3 60.8511 55.7656 7.75242
637 1 59.1155 56.7677 6.24801
638 2 62.2905 58.719 4.46093
639 3 62.4959 58.6251 7.74145
640 1 60.7591 59.6195 6.23333
641 2 63.9309 61.5561 4.42694
642 3 64.132 61.4897 7.70844
643 1 62.3985 62.4731 6.18971
644 2 65.5722 64.3925 4.37066
645 3 65.761 64.3578 7.65344
646 1 64.0343 65.3273 6.11872
647 2 67.2143 67.2281 4.29354
648 3 67.3847 67.2267 7.57758
649 1 29.5711 0.00767553 5.85444
650 2 32.7841 1.8899 4.07497
651 3 32.884 1.91892 7.36182
652 1 31.2023 2.85714 5.76312
653 2 34.4278 4.72537 3.9931
654 3 34.5022 4.77853 7.28032
655 1 32.8331 5.70365 5.6621
656 2 36.0717 7.56191 3.90675
657 3 36.1204 7.63125 7.19409
658 1 34.4638 8.5468 5.55882
659 2 37.7158 10.4003 3.82355
660 3 37.7395 10.476 7.11093
661 1 36.0951 11.3867 5.46189
662 2 39.36 13.241 3.75176
663 3 39.36 13.3129 7.03921
664 1 37.727 14.2239 5.37999
665 2 41.0042 16.084 3.69899
666 3 40.9827 16.143 6.98656
667 1 39.36 17.059 5.32072
668 2 42.6481 18.9288 3.67104
669 3 42.6082 18.968 6.9587
670 1 40.9941 19.8926 5.28962
671 2 44.2912 21.7748 3.67104
672 3 44.2373 21.7897 6.9587
673 1 42.6295 22.7253 5.28962
674 2 45.933 24.6209 3.69899
675 3 45.8711 24.61 6.98656
676 1 44.2665 25.5573 5.32072
677 2 47.573 27.4663 3.75176
678 3 47.5107 27.4303 7.03921
679 1 45.9053 28.389 5.37999
680 2 49.211 30.3105 3.82355
681 3 49.1572 30.2522 7.11093
682 1 47.5463 31.2209 5.46189
683 2 50.8471 33.1535 3.90675
684 3 50.8114 33.0767 7.19409
685 1 49.1902 34.0536 5.55882
686 2 52.4816 35.9955 3.9931
687 3 52.4728 35.9044 7.28032
688 1 50.837 36.8874 5.6621
689 2 54.1154 38.8367 4.07497
690 3 54.1402 38.7356 7.36182
691 1 52.4868 39.723 5.76312
692 2 55.749 41.6776 4.14638
693 3 55.8111 41.5701 7.43249
694 1 54.1389 42.5604 5.85444
695 2 57.3831 44.5183 4.20358
696 3 57.4822 44.4072 7.48859
697 1 55.7921 45.3998 5.93061
698 2 59.0183 47.359 4.24517
699 3 59.1501 47.2466 7.5289
700 1 57.4449 48.241 5.98844
701 2 60.6548 50.1997 4.2716
702 3 60.8119 50.0886 7.55416
703 1 59.0958 51.0842 6.02675
704 2 62.2928 53.0401 4.28426
705 3 62.4656 52.9338 7.56613
706 1 60.7435 53.9294 6.04569
707 2 63.9323 55.8799 4.28426
708 3 64.1108 55.7833 7.56613
709 1 62.3875 56.7769 6.04569
710 2 65.5732 58.7186 4.2716
711 3 65.7479 58.6381 7.55416
712 1 64.0277 59.6265 6.02675
713 2 67.215 61.5562 4.24517
714 3 67.3783 61.4982 7.5289
715 1 65.6645 62.4778 5.98844
716 2 68.8576 64.3926 4.20358
717 3 69.0034 64.3624 7.48859
718 1 67.2987 65.3298 5.93061
719 2 70.5007 67.2282 4.14638
720 3 70.6248 67.2282 7.43249
721 1 32.8342 0.0081089 5.73142
722 2 36.0719 1.88988 3.99998
723 3 36.1222 1.91853 7.28797
724 1 34.4654 2.8567 5.66442
725 2 37.7159 4.72531 3.94346
726 3 37.7408 4.7776 7.23144
727 1 36.0966 5.70281 5.58881
728 2 39.36 7.56187 3.88238
729 3 39.36 7.6305 7.17009
730 1 37.728 8.54596 5.51097
731 2 41.0042 10.4003 3.82355
732 3 40.9805 10.476 7.11093
733 1 39.36 11.3862 5.4387
734 2 42.6484 13.2409 3.77446
735 3 42.6031 13.3141 7.06158
736 1 40.993 14.2239 5.37999
737 2 44.2922 16.0838 3.74188
738 3 44.2286 16.1459 7.02885
739 1 42.6271 17.0597 5.34169
740 2 45.9353 18.9282 3.73046
741 3 45.8577 18.9731 7.01738
742 1 44.2625 19.8941 5.32839
743 2 47.5772 21.7734 3.74188
744 3 47.4915 21.7975 7.02885
745 1 45.8994 22.7276 5.34169
746 2 49.2172 24.6185 3.77446
747 3 49.1312 24.621 7.06158
748 1 47.5382 25.5606 5.37999
749 2 50.8552 27.4627 3.82355
750 3 50.7778 27.4453 7.11093
751 1 49.1793 28.3937 5.4387
752 2 52.4912 30.3058 3.88238
753 3 52.4318 30.2715 7.17009
754 1 50.823 31.2272 5.51097
755 2 54.1257 33.1479 3.94346
756 3 54.0929 33.1002 7.23144
757 1 52.4695 34.0616 5.58881
758 2 55.7593 35.9894 3.99998
759 3 55.7596 35.9315 7.28797
760 1 54.1187 36.8972 5.66442
761 2 57.3926 38.8305 4.0469
762 3 57.4295 38.765 7.3345
763 1 55.7701 39.7342 5.73142
764 2 59.0264 41.6717 4.08166
765 3 59.0994 41.5999 7.36845
766 1 57.4223 42.5726 5.78564
767 2 60.6611 44.5131 4.10425
768 3 60.7661 44.4357 7.38994
769 1 59.0742 45.4121 5.82544
770 2 62.2973 47.3548 4.11676
771 3 62.4269 47.2724 7.40134
772 1 60.7242 48.2528 5.85144
773 2 63.9352 50.1968 4.12237
774 3 64.0801 50.1105 7.4061
775 1 62.3715 51.0949 5.86563
776 2 65.5748 53.0384 4.12386
777 3 65.7254 52.9515 7.40729
778 1 64.0156 53.9386 5.87007
779 2 67.2159 55.8792 4.12237
780 3 67.3631 55.7968 7.4061
781 1 65.6563 56.7842 5.86563
782 2 68.8581 58.7186 4.11676
783 3 68.9944 58.6476 7.40134
784 1 67.2939 59.6319 5.85144
785 2 70.5011 61.5564 4.10425
786 3 70.6206 61.5042 7.38994
787 1 68.929 62.4813 5.82544
788 2 72.1444 64.3928 4.08166
789 3 72.2431 64.3655 7.36845
790 1 70.5622 65.3316 5.78564
791 2 73.7881 67.2283 4.0469
792 3 73.8633 67.2292 7.3345
793 1 36.0971 0.00837482 5.65694
794 2 39.36 1.88988 3.97488
795 3 39.36 1.91841 7.26326
796 1 37.7285 2.85649 5.61478
797 2 41.0041 4.72531 3.94346
798 3 40.9792 4.7776 7.23144
799 1 39.36 5.70254 5.56427
800 2 42.6483 7.56191 3.90675
801 3 42.5996 7.63125 7.19409
802 1 40.992 8.54596 5.51097
803 2 44.2924 10.4003 3.87072
804 3 44.2219 10.4781 7.15738
805 1 42.6249 11.3867 5.46189
806 2 45.9362 13.2408 3.84193
807 3 45.8471 13.318 7.12806
808 1 44.259 14.2251 5.4242
809 2 47.5793 16.0833 3.82594
810 3 47.4761 16.152 7.11179
811 1 45.8943 17.0617 5.40373
812 2 49.2211 18.927 3.82594
813 3 49.11 18.982 7.11179
814 1 47.5313 19.897 5.40373
815 2 50.8612 21.7712 3.84193
816 3 50.7499 21.8097 7.12806
817 1 49.1702 22.7316 5.4242
818 2 52.4993 24.615 3.87072
819 3 52.3967 24.6372 7.15738
820 1 50.8113 25.5659 5.46189
821 2 54.1353 27.4581 3.90675
822 3 54.0509 27.4656 7.19409
823 1 52.455 28.4004 5.51097
824 2 55.7698 30.3003 3.94346
825 3 55.7121 30.2957 7.23144
826 1 54.1015 31.2355 5.56427
827 2 57.4033 33.1418 3.97488
828 3 57.3786 33.1276 7.26326
829 1 55.7504 34.0715 5.61478
830 2 59.0365 35.9831 3.99684
831 3 59.048 35.9607 7.28521
832 1 57.4013 36.9083 5.65694
833 2 60.6701 38.8245 4.0077
834 3 60.7171 38.7942 7.29562
835 1 59.0529 39.746 5.6876
836 2 62.3045 41.6662 4.00854
837 3 62.383 41.6276 7.29567
838 1 60.704 42.5843 5.70632
839 2 63.9404 44.5086 4.00273
840 3 64.043 44.4605 7.28894
841 1 62.3534 45.4232 5.71512
842 2 65.5781 47.3515 3.99494
843 3 65.6957 47.2934 7.28036
844 1 64.0002 48.2629 5.71764
845 2 67.2177 50.1947 3.98967
846 3 67.3407 50.1275 7.27464
847 1 65.6442 51.1036 5.71768
848 2 68.859 53.0374 3.98967
849 3 68.9787 52.9645 7.27464
850 1 67.2851 53.9457 5.71768
851 2 70.5015 55.879 3.99494
852 3 70.6106 55.8062 7.28036
853 1 68.9232 56.7898 5.71764
854 2 72.1447 58.7187 4.00273
855 3 72.2376 58.654 7.28894
856 1 70.559 59.6358 5.71512
857 2 73.7883 61.5566 4.00854
858 3 73.8609 61.508 7.29567
859 1 72.1929 62.4837 5.70632
860 2 75.4321 64.393 4.0077
861 3 75.4818 64.3673 7.29562
862 1 73.8254 65.3327 5.6876
863 2 77.076 67.2284 3.99684
864 3 77.1012 67.2296 7.28521
865 1 39.36 0.00846558 5.63202
866 2 42.6481 1.88988 3.99998
867 3 42.5978 1.91853 7.28797
868 1 40.9915 2.85649 5.61478
869 2 44.2922 4.72537 3.9931
870 3 44.2178 4.77853 7.28032
871 1 42.6234 5.70281 5.58881
872 2 45.9362 7.562 3.97947
873 3 45.8396 7.63362 7.2657
874 1 44.2562 8.5468 5.55882
875 2 47.5799 10.4003 3.96401
876 3 47.4644 10.4824 7.2493
877 1 45.89 11.3883 5.53092
878 2 49.2229 13.2405 3.95201
879 3 49.0931 13.3248 7.23663
880 1 47.5253 14.2276 5.51118
881 2 50.8647 16.0823 3.94751
882 3 50.7269 16.1618 7.23188
883 1 49.1622 17.0652 5.50406
884 2 52.5048 18.925 3.95201
885 3 52.3669 18.9953 7.23663
886 1 50.8011 19.9016 5.51118
887 2 54.143 21.768 3.96401
888 3 54.0142 21.827 7.2493
889 1 52.4424 22.7374 5.53092
890 2 55.7792 24.6106 3.97947
891 3 55.6689 24.6584 7.2657
892 1 54.0863 25.5732 5.55882
893 2 57.4138 27.4527 3.9931
894 3 57.3305 27.4905 7.28032
895 1 55.7329 28.4091 5.58881
896 2 59.0474 30.2942 3.99998
897 3 58.9974 30.3235 7.28797
898 1 57.382 31.2456 5.61478
899 2 60.6805 33.1356 3.99684
900 3 60.6668 33.1567 7.28521
901 1 59.0327 34.0825 5.63202
902 2 62.314 35.977 3.98294
903 3 62.3357 35.9896 7.27124
904 1 60.6839 36.9198 5.63825
905 2 63.9483 38.8188 3.96025
906 3 64.0011 38.8212 7.24812
907 1 62.3346 39.7573 5.63399
908 2 65.584 41.6615 3.93313
909 3 65.6606 41.6514 7.22038
910 1 63.9835 42.5948 5.62232
911 2 67.2216 44.505 3.90741
912 3 67.3129 44.4804 7.19409
913 1 65.6299 45.4326 5.60819
914 2 68.8611 47.3492 3.88902
915 3 68.9577 47.3093 7.1753
916 1 67.2736 48.2709 5.59693
917 2 70.5024 50.1935 3.88235
918 3 70.5957 50.1396 7.16849
919 1 68.9146 51.1102 5.59266
920 2 72.145 53.037 3.88902
921 3 72.2278 52.9733 7.1753
922 1 70.553 53.9509 5.59693
923 2 73.7884 55.879 3.90741
924 3 73.8553 55.8122 7.19409
925 1 72.1892 56.7936 5.60819
926 2 75.4321 58.7189 3.93313
927 3 75.4791 58.6576 7.22038
928 1 73.8236 59.6383 5.62232
929 2 77.076 61.5568 3.96025
930 3 77.1004 61.5099 7.24812
931 1 75.4565 62.4851 5.63399
932 2 78.72 64.3931 3.98294
933 3 78.72 64.3679 7.27124
934 1 77.0885 65.3333 5.63825
935 2 80.364 67.2284 3.99684
936 3 80.3388 67.2296 7.28521
937 1 42.6229 0.00837482 5.65694
938 2 45.9359 1.8899 4.07497
939 3 45.836 1.91892 7.36182
940 1 44.2546 2.8567 5.66442
941 2 47.5797 4.72546 4.09169
942 3 47.457 4.78051 7.37743
943 1 45.8869 5.70365 5.6621
944 2 49.2232 7.56208 4.09915
945 3 49.081 7.63785 7.38363
946 1 47.5204 8.54853 5.65365
947 2 50.866 10.4001 4.10091
948 3 50.7091 10.4894 7.3843
949 1 49.1554 11.3911 5.644
950 2 52.5077 13.2398 4.10063
951 3 52.3426 13.3351 7.3834
952 1 50.7922 14.2316 5.63778
953 2 54.1479 16.0806 4.10063
954 3 53.9827 16.176 7.3834
955 1 52.4312 17.0704 5.63778
956 2 55.7862 18.9222 4.10091
957 3 55.6304 19.0135 7.3843
958 1 54.0727 19.9081 5.644
959 2 57.4226 21.7639 4.09915
960 3 57.2859 21.8492 7.38363
961 1 55.717 22.7454 5.65365
962 2 59.0575 24.6056 4.09169
963 3 58.9485 24.6843 7.37743
964 1 57.364 25.5824 5.6621
965 2 60.6912 27.4469 4.07497
966 3 60.6161 27.519 7.36182
967 1 59.0133 28.4196 5.66442
968 2 62.3245 30.2882 4.0469
969 3 62.2862 30.3529 7.3345
970 1 60.6642 31.2568 5.65694
971 2 63.958 33.1296 4.0077
972 3 63.9554 33.1855 7.29562
973 1 62.3155 34.0939 5.63825
974 2 65.5922 35.9714 3.96025
975 3 65.6207 36.016 7.24812
976 1 63.9659 36.9307 5.60975
977 2 67.2279 38.814 3.90975
978 3 67.28 38.8441 7.19736
979 1 65.6145 39.7672 5.57543
980 2 68.8653 41.6577 3.86294
981 3 68.932 41.6702 7.15027
982 1 67.2607 42.6034 5.54119
983 2 70.5048 44.5024 3.82681
984 3 70.5767 44.4951 7.11394
985 1 68.9042 45.4398 5.51357
986 2 72.1461 47.3477 3.80713
987 3 72.2146 47.3202 7.09417
988 1 70.5451 48.2768 5.49815
989 2 73.7887 50.1928 3.80713
990 3 73.8468 50.1473 7.09417
991 1 72.1836 51.1148 5.49815
992 2 75.4322 53.0369 3.82681
993 3 75.4745 52.9783 7.11394
994 1 73.8201 53.9543 5.51357
995 2 77.076 55.8791 3.86294
996 3 77.0986 55.8151 7.15027
997 1 75.4547 56.7958 5.54119
998 2 78.72 58.719 3.90975
999 3 78.72 58.6588 7.19736
1000 1 77.0879 59.6396 5.57543
1001 2 80.364 61.5568 3.96025
1002 3 80.3396 61.5099 7.24812
1003 1 78.72 62.4855 5.60975
1004 2 82.0079 64.393 4.0077
1005 3 81.9582 64.3673 7.29562
1006 1 80.3515 65.3333 5.63825