LAMMPS data file

3603 atoms
6 atom types
0.0 78.72 xlo xhi
0.0 68.173519787136 ylo yhi
0.0 35.0 zlo zhi
39.36 0.0 0.0 xy xz yz

Masses

1 183.84
2 78.971
3 78.971
4 183.84
5 32.06
6 32.06

Atoms

1 1 0.0 0.0 5.889523815
2 2 3.2799999999671994 1.8937088829570627 4.34440811
3 3 3.2799999999671994 1.8937088829570627 7.4346395199999975
4 1 1.64 2.840563324464 5.889523815
5 2 4.9199999999671995 4.734272207421062 4.34440811
6 3 4.9199999999671995 4.734272207421062 7.4346395199999975
7 1 3.28 5.681126648928 5.889523815
8 2 6.559999999967199 7.574835531885062 4.34440811
9 3 6.559999999967199 7.574835531885062 7.4346395199999975
10 1 4.92 8.521689973392 5.889523815
11 2 8.199999999967199 10.415398856349062 4.34440811
12 3 8.199999999967199 10.415398856349062 7.4346395199999975
13 1 6.56 11.362253297856 5.889523815
14 2 9.8399999999672 13.255962180813063 4.34440811
15 3 9.8399999999672 13.255962180813063 7.4346395199999975
16 1 8.2 14.202816622319999 5.889523815
17 2 11.479999999967198 16.09652550527706 4.34440811
18 3 11.479999999967198 16.09652550527706 7.4346395199999975
19 1 9.84 17.043379946784 5.889523815
20 2 13.119999999967199 18.937088829741064 4.34440811
21 3 13.119999999967199 18.937088829741064 7.4346395199999975
22 1 11.479999999999999 19.883943271247997 5.889523815
23 2 14.759999999967198 21.77765215420506 4.34440811
24 3 14.759999999967198 21.77765215420506 7.4346395199999975
25 1 13.12 22.724506595712 5.889523815
26 2 16.3999999999672 24.618215478669065 4.34440811
27 3 16.3999999999672 24.618215478669065 7.4346395199999975
28 1 14.76 25.565069920176 5.889523815
29 2 18.0399999999672 27.458778803133065 4.34440811
30 3 18.0399999999672 27.458778803133065 7.4346395199999975
31 1 16.4 28.405633244639997 5.889523815
32 2 19.679999999967198 30.29934212759706 4.34440811
33 3 19.679999999967198 30.29934212759706 7.4346395199999975
34 1 18.04 31.246196569104 5.889523815
35 2 21.319999999967198 33.139905452061065 4.34440811
36 3 21.319999999967198 33.139905452061065 7.4346395199999975
37 1 19.679999999999996 34.086759893567994 5.889523815
38 2 22.9599999999672 35.980468776525065 4.34440811
39 3 22.9599999999672 35.980468776525065 7.4346395199999975
40 1 21.319999999999997 36.927323218032 5.889523815
41 2 24.599999999967196 38.821032100989065 4.34440811
42 3 24.599999999967196 38.821032100989065 7.4346395199999975
43 1 22.959999999999997 39.767886542495994 5.889523815
44 2 26.239999999967196 41.66159542545306 4.34440811
45 3 26.239999999967196 41.66159542545306 7.4346395199999975
46 1 24.6 42.60844986696 5.889523815
47 2 27.8799999999672 44.502158749917065 4.34440811
48 3 27.8799999999672 44.502158749917065 7.4346395199999975
49 1 26.24 45.449013191424 5.889523815
50 2 29.519999999967197 47.342722074381065 4.34440811
51 3 29.519999999967197 47.342722074381065 7.4346395199999975
52 1 27.879999999999995 48.289576515887994 5.889523815
53 2 31.159999999967194 50.18328539884506 4.34440811
54 3 31.159999999967194 50.18328539884506 7.4346395199999975
55 1 29.52 51.130139840352 5.889523815
56 2 32.7999999999672 53.023848723309065 4.34440811
57 3 32.7999999999672 53.023848723309065 7.4346395199999975
58 1 31.159999999999997 53.970703164816 5.889523815
59 2 34.4399999999672 55.864412047773065 4.34440811
60 3 34.4399999999672 55.864412047773065 7.4346395199999975
61 1 32.8 56.811266489279994 5.889523815
62 2 36.0799999999672 58.70497537223706 4.34440811
63 3 36.0799999999672 58.70497537223706 7.4346395199999975
64 1 34.44 59.651829813744 5.889523815
65 2 37.7199999999672 61.545538696701065 4.34440811
66 3 37.7199999999672 61.545538696701065 7.4346395199999975
67 1 36.08 62.492393138208 5.889523815
68 2 39.3599999999672 64.38610202116506 4.34440811
69 3 39.3599999999672 64.38610202116506 7.4346395199999975
70 1 37.72 65.332956462672 5.889523815
71 2 40.9999999999672 67.22666534562906 4.34440811
72 3 40.9999999999672 67.22666534562906 7.4346395199999975
73 1 3.28 0.0 5.889523815
74 2 6.559999999967199 1.8937088829570627 4.34440811
75 3 6.559999999967199 1.8937088829570627 7.4346395199999975
76 1 4.92 2.840563324464 5.889523815
77 2 8.199999999967199 4.734272207421062 4.34440811
78 3 8.199999999967199 4.734272207421062 7.4346395199999975
79 1 6.56 5.681126648928 5.889523815
80 2 9.8399999999672 7.574835531885062 4.34440811
81 3 9.8399999999672 7.574835531885062 7.4346395199999975
82 1 8.2 8.521689973392 5.889523815
83 2 11.479999999967198 10.415398856349062 4.34440811
84 3 11.479999999967198 10.415398856349062 7.4346395199999975
85 1 9.84 11.362253297856 5.889523815
86 2 13.119999999967199 13.255962180813063 4.34440811
87 3 13.119999999967199 13.255962180813063 7.4346395199999975
88 1 11.479999999999999 14.202816622319999 5.889523815
89 2 14.759999999967198 16.09652550527706 4.34440811
90 3 14.759999999967198 16.09652550527706 7.4346395199999975
91 1 13.12 17.043379946784 5.889523815
92 2 16.3999999999672 18.937088829741064 4.34440811
93 3 16.3999999999672 18.937088829741064 7.4346395199999975
94 1 14.759999999999998 19.883943271247997 5.889523815
95 2 18.039999999967197 21.77765215420506 4.34440811
96 3 18.039999999967197 21.77765215420506 7.4346395199999975
97 1 16.4 22.724506595712 5.889523815
98 2 19.679999999967198 24.618215478669065 4.34440811
99 3 19.679999999967198 24.618215478669065 7.4346395199999975
100 1 18.04 25.565069920176 5.889523815
101 2 21.319999999967198 27.458778803133065 4.34440811
102 3 21.319999999967198 27.458778803133065 7.4346395199999975
103 1 19.68 28.405633244639997 5.889523815
104 2 22.9599999999672 30.29934212759706 4.34440811
105 3 22.9599999999672 30.29934212759706 7.4346395199999975
106 1 21.32 31.246196569104 5.889523815
107 2 24.5999999999672 33.139905452061065 4.34440811
108 3 24.5999999999672 33.139905452061065 7.4346395199999975
109 1 22.959999999999997 34.086759893567994 5.889523815
110 2 26.2399999999672 35.980468776525065 4.34440811
111 3 26.2399999999672 35.980468776525065 7.4346395199999975
112 1 24.599999999999998 36.927323218032 5.889523815
113 2 27.879999999967197 38.821032100989065 4.34440811
114 3 27.879999999967197 38.821032100989065 7.4346395199999975
115 1 26.239999999999995 39.767886542495994 5.889523815
116 2 29.519999999967194 41.66159542545306 4.34440811
117 3 29.519999999967194 41.66159542545306 7.4346395199999975
118 1 27.88 42.60844986696 5.889523815
119 2 31.159999999967198 44.502158749917065 4.34440811
120 3 31.159999999967198 44.502158749917065 7.4346395199999975
121 1 29.52 45.449013191424 5.889523815
122 2 32.7999999999672 47.342722074381065 4.34440811
123 3 32.7999999999672 47.342722074381065 7.4346395199999975
124 1 31.159999999999997 48.289576515887994 5.889523815
125 2 34.4399999999672 50.18328539884506 4.34440811
126 3 34.4399999999672 50.18328539884506 7.4346395199999975
127 1 32.8 51.130139840352 5.889523815
128 2 36.0799999999672 53.023848723309065 4.34440811
129 3 36.0799999999672 53.023848723309065 7.4346395199999975
130 1 34.44 53.970703164816 5.889523815
131 2 37.7199999999672 55.864412047773065 4.34440811
132 3 37.7199999999672 55.864412047773065 7.4346395199999975
133 1 36.08 56.811266489279994 5.889523815
134 2 39.3599999999672 58.70497537223706 4.34440811
135 3 39.3599999999672 58.70497537223706 7.4346395199999975
136 1 37.72 59.651829813744 5.889523815
137 2 40.9999999999672 61.545538696701065 4.34440811
138 3 40.9999999999672 61.545538696701065 7.4346395199999975
139 1 39.36 62.492393138208 5.889523815
140 2 42.6399999999672 64.38610202116506 4.34440811
141 3 42.6399999999672 64.38610202116506 7.4346395199999975
142 1 40.99999999999999 65.332956462672 5.889523815
143 2 44.279999999967195 67.22666534562906 4.34440811
144 3 44.279999999967195 67.22666534562906 7.4346395199999975
145 1 6.56 0.0 5.889523815
146 2 9.8399999999672 1.8937088829570627 4.34440811
147 3 9.8399999999672 1.8937088829570627 7.4346395199999975
148 1 8.2 2.840563324464 5.889523815
149 2 11.479999999967198 4.734272207421062 4.34440811
150 3 11.479999999967198 4.734272207421062 7.4346395199999975
151 1 9.84 5.681126648928 5.889523815
152 2 13.119999999967199 7.574835531885062 4.34440811
153 3 13.119999999967199 7.574835531885062 7.4346395199999975
154 1 11.48 8.521689973392 5.889523815
155 2 14.7599999999672 10.415398856349062 4.34440811
156 3 14.7599999999672 10.415398856349062 7.4346395199999975
157 1 13.12 11.362253297856 5.889523815
158 2 16.3999999999672 13.255962180813063 4.34440811
159 3 16.3999999999672 13.255962180813063 7.4346395199999975
160 1 14.759999999999998 14.202816622319999 5.889523815
161 2 18.039999999967197 16.09652550527706 4.34440811
162 3 18.039999999967197 16.09652550527706 7.4346395199999975
163 1 16.4 17.043379946784 5.889523815
164 2 19.679999999967198 18.937088829741064 4.34440811
165 3 19.679999999967198 18.937088829741064 7.4346395199999975
166 1 18.04 19.883943271247997 5.889523815
167 2 21.319999999967198 21.77765215420506 4.34440811
168 3 21.319999999967198 21.77765215420506 7.4346395199999975
169 1 19.68 22.724506595712 5.889523815
170 2 22.9599999999672 24.618215478669065 4.34440811
171 3 22.9599999999672 24.618215478669065 7.4346395199999975
172 1 21.32 25.565069920176 5.889523815
173 2 24.5999999999672 27.458778803133065 4.34440811
174 3 24.5999999999672 27.458778803133065 7.4346395199999975
175 1 22.959999999999997 28.405633244639997 5.889523815
176 2 26.239999999967196 30.29934212759706 4.34440811
177 3 26.239999999967196 30.29934212759706 7.4346395199999975
178 1 24.599999999999998 31.246196569104 5.889523815
179 2 27.879999999967197 33.139905452061065 4.34440811
180 3 27.879999999967197 33.139905452061065 7.4346395199999975
181 1 26.239999999999995 34.086759893567994 5.889523815
182 2 29.519999999967197 35.980468776525065 4.34440811
183 3 29.519999999967197 35.980468776525065 7.4346395199999975
184 1 27.88 36.927323218032 5.889523815
185 2 31.159999999967198 38.821032100989065 4.34440811
186 3 31.159999999967198 38.821032100989065 7.4346395199999975
187 1 29.519999999999996 39.767886542495994 5.889523815
188 2 32.7999999999672 41.66159542545306 4.34440811
189 3 32.7999999999672 41.66159542545306 7.4346395199999975
190 1 31.16 42.60844986696 5.889523815
191 2 34.4399999999672 44.502158749917065 4.34440811
192 3 34.4399999999672 44.502158749917065 7.4346395199999975
193 1 32.8 45.449013191424 5.889523815
194 2 36.0799999999672 47.342722074381065 4.34440811
195 3 36.0799999999672 47.342722074381065 7.4346395199999975
196 1 34.44 48.289576515887994 5.889523815
197 2 37.7199999999672 50.18328539884506 4.34440811
198 3 37.7199999999672 50.18328539884506 7.4346395199999975
199 1 36.08 51.130139840352 5.889523815
200 2 39.3599999999672 53.023848723309065 4.34440811
201 3 39.3599999999672 53.023848723309065 7.4346395199999975
202 1 37.72 53.970703164816 5.889523815
203 2 40.9999999999672 55.864412047773065 4.34440811
204 3 40.9999999999672 55.864412047773065 7.4346395199999975
205 1 39.36 56.811266489279994 5.889523815
206 2 42.6399999999672 58.70497537223706 4.34440811
207 3 42.6399999999672 58.70497537223706 7.4346395199999975
208 1 41.0 59.651829813744 5.889523815
209 2 44.2799999999672 61.545538696701065 4.34440811
210 3 44.2799999999672 61.545538696701065 7.4346395199999975
211 1 42.64 62.492393138208 5.889523815
212 2 45.9199999999672 64.38610202116506 4.34440811
213 3 45.9199999999672 64.38610202116506 7.4346395199999975
214 1 44.279999999999994 65.332956462672 5.889523815
215 2 47.5599999999672 67.22666534562906 4.34440811
216 3 47.5599999999672 67.22666534562906 7.4346395199999975
217 1 9.84 0.0 5.889523815
218 2 13.119999999967199 1.8937088829570627 4.34440811
219 3 13.119999999967199 1.8937088829570627 7.4346395199999975
220 1 11.48 2.840563324464 5.889523815
221 2 14.7599999999672 4.734272207421062 4.34440811
222 3 14.7599999999672 4.734272207421062 7.4346395199999975
223 1 13.12 5.681126648928 5.889523815
224 2 16.3999999999672 7.574835531885062 4.34440811
225 3 16.3999999999672 7.574835531885062 7.4346395199999975
226 1 14.76 8.521689973392 5.889523815
227 2 18.0399999999672 10.415398856349062 4.34440811
228 3 18.0399999999672 10.415398856349062 7.4346395199999975
229 1 16.4 11.362253297856 5.889523815
230 2 19.679999999967198 13.255962180813063 4.34440811
231 3 19.679999999967198 13.255962180813063 7.4346395199999975
232 1 18.04 14.202816622319999 5.889523815
233 2 21.319999999967198 16.09652550527706 4.34440811
234 3 21.319999999967198 16.09652550527706 7.4346395199999975
235 1 19.68 17.043379946784 5.889523815
236 2 22.9599999999672 18.937088829741064 4.34440811
237 3 22.9599999999672 18.937088829741064 7.4346395199999975
238 1 21.319999999999997 19.883943271247997 5.889523815
239 2 24.599999999967196 21.77765215420506 4.34440811
240 3 24.599999999967196 21.77765215420506 7.4346395199999975
241 1 22.959999999999997 22.724506595712 5.889523815
242 2 26.239999999967196 24.618215478669065 4.34440811
243 3 26.239999999967196 24.618215478669065 7.4346395199999975
244 1 24.6 25.565069920176 5.889523815
245 2 27.8799999999672 27.458778803133065 4.34440811
246 3 27.8799999999672 27.458778803133065 7.4346395199999975
247 1 26.24 28.405633244639997 5.889523815
248 2 29.519999999967197 30.29934212759706 4.34440811
249 3 29.519999999967197 30.29934212759706 7.4346395199999975
250 1 27.88 31.246196569104 5.889523815
251 2 31.159999999967198 33.139905452061065 4.34440811
252 3 31.159999999967198 33.139905452061065 7.4346395199999975
253 1 29.519999999999996 34.086759893567994 5.889523815
254 2 32.7999999999672 35.980468776525065 4.34440811
255 3 32.7999999999672 35.980468776525065 7.4346395199999975
256 1 31.159999999999997 36.927323218032 5.889523815
257 2 34.4399999999672 38.821032100989065 4.34440811
258 3 34.4399999999672 38.821032100989065 7.4346395199999975
259 1 32.8 39.767886542495994 5.889523815
260 2 36.0799999999672 41.66159542545306 4.34440811
261 3 36.0799999999672 41.66159542545306 7.4346395199999975
262 1 34.44 42.60844986696 5.889523815
263 2 37.7199999999672 44.502158749917065 4.34440811
264 3 37.7199999999672 44.502158749917065 7.4346395199999975
265 1 36.08 45.449013191424 5.889523815
266 2 39.3599999999672 47.342722074381065 4.34440811
267 3 39.3599999999672 47.342722074381065 7.4346395199999975
268 1 37.72 48.289576515887994 5.889523815
269 2 40.9999999999672 50.18328539884506 4.34440811
270 3 40.9999999999672 50.18328539884506 7.4346395199999975
271 1 39.36 51.130139840352 5.889523815
272 2 42.6399999999672 53.023848723309065 4.34440811
273 3 42.6399999999672 53.023848723309065 7.4346395199999975
274 1 41.0 53.970703164816 5.889523815
275 2 44.2799999999672 55.864412047773065 4.34440811
276 3 44.2799999999672 55.864412047773065 7.4346395199999975
277 1 42.63999999999999 56.811266489279994 5.889523815
278 2 45.919999999967196 58.70497537223706 4.34440811
279 3 45.919999999967196 58.70497537223706 7.4346395199999975
280 1 44.28 59.651829813744 5.889523815
281 2 47.559999999967204 61.545538696701065 4.34440811
282 3 47.559999999967204 61.545538696701065 7.4346395199999975
283 1 45.919999999999995 62.492393138208 5.889523815
284 2 49.1999999999672 64.38610202116506 4.34440811
285 3 49.1999999999672 64.38610202116506 7.4346395199999975
286 1 47.559999999999995 65.332956462672 5.889523815
287 2 50.8399999999672 67.22666534562906 4.34440811
288 3 50.8399999999672 67.22666534562906 7.4346395199999975
289 1 13.12 0.0 5.889523815
290 2 16.3999999999672 1.8937088829570627 4.34440811
291 3 16.3999999999672 1.8937088829570627 7.4346395199999975
292 1 14.76 2.840563324464 5.889523815
293 2 18.0399999999672 4.734272207421062 4.34440811
294 3 18.0399999999672 4.734272207421062 7.4346395199999975
295 1 16.4 5.681126648928 5.889523815
296 2 19.679999999967198 7.574835531885062 4.34440811
297 3 19.679999999967198 7.574835531885062 7.4346395199999975
298 1 18.04 8.521689973392 5.889523815
299 2 21.319999999967198 10.415398856349062 4.34440811
300 3 21.319999999967198 10.415398856349062 7.4346395199999975
301 1 19.68 11.362253297856 5.889523815
302 2 22.9599999999672 13.255962180813063 4.34440811
303 3 22.9599999999672 13.255962180813063 7.4346395199999975
304 1 21.319999999999997 14.202816622319999 5.889523815
305 2 24.599999999967196 16.09652550527706 4.34440811
306 3 24.599999999967196 16.09652550527706 7.4346395199999975
307 1 22.96 17.043379946784 5.889523815
308 2 26.2399999999672 18.937088829741064 4.34440811
309 3 26.2399999999672 18.937088829741064 7.4346395199999975
310 1 24.599999999999998 19.883943271247997 5.889523815
311 2 27.879999999967197 21.77765215420506 4.34440811
312 3 27.879999999967197 21.77765215420506 7.4346395199999975
313 1 26.24 22.724506595712 5.889523815
314 2 29.519999999967197 24.618215478669065 4.34440811
315 3 29.519999999967197 24.618215478669065 7.4346395199999975
316 1 27.88 25.565069920176 5.889523815
317 2 31.159999999967198 27.458778803133065 4.34440811
318 3 31.159999999967198 27.458778803133065 7.4346395199999975
319 1 29.519999999999996 28.405633244639997 5.889523815
320 2 32.7999999999672 30.29934212759706 4.34440811
321 3 32.7999999999672 30.29934212759706 7.4346395199999975
322 1 31.159999999999997 31.246196569104 5.889523815
323 2 34.4399999999672 33.139905452061065 4.34440811
324 3 34.4399999999672 33.139905452061065 7.4346395199999975
325 1 32.8 34.086759893567994 5.889523815
326 2 36.0799999999672 35.980468776525065 4.34440811
327 3 36.0799999999672 35.980468776525065 7.4346395199999975
328 1 34.44 36.927323218032 5.889523815
329 2 37.7199999999672 38.821032100989065 4.34440811
330 3 37.7199999999672 38.821032100989065 7.4346395199999975
331 1 36.08 39.767886542495994 5.889523815
332 2 39.3599999999672 41.66159542545306 4.34440811
333 3 39.3599999999672 41.66159542545306 7.4346395199999975
334 1 37.72 42.60844986696 5.889523815
335 2 40.9999999999672 44.502158749917065 4.34440811
336 3 40.9999999999672 44.502158749917065 7.4346395199999975
337 1 39.36 45.449013191424 5.889523815
338 2 42.6399999999672 47.342722074381065 4.34440811
339 3 42.6399999999672 47.342722074381065 7.4346395199999975
340 1 40.99999999999999 48.289576515887994 5.889523815
341 2 44.279999999967195 50.18328539884506 4.34440811
342 3 44.279999999967195 50.18328539884506 7.4346395199999975
343 1 42.64 51.130139840352 5.889523815
344 2 45.9199999999672 53.023848723309065 4.34440811
345 3 45.9199999999672 53.023848723309065 7.4346395199999975
346 1 44.279999999999994 53.970703164816 5.889523815
347 2 47.5599999999672 55.864412047773065 4.34440811
348 3 47.5599999999672 55.864412047773065 7.4346395199999975
349 1 45.919999999999995 56.811266489279994 5.889523815
350 2 49.1999999999672 58.70497537223706 4.34440811
351 3 49.1999999999672 58.70497537223706 7.4346395199999975
352 1 47.56 59.651829813744 5.889523815
353 2 50.839999999967205 61.545538696701065 4.34440811
354 3 50.839999999967205 61.545538696701065 7.4346395199999975
355 1 49.199999999999996 62.492393138208 5.889523815
356 2 52.4799999999672 64.38610202116506 4.34440811
357 3 52.4799999999672 64.38610202116506 7.4346395199999975
358 1 50.839999999999996 65.332956462672 5.889523815
359 2 54.1199999999672 67.22666534562906 4.34440811
360 3 54.1199999999672 67.22666534562906 7.4346395199999975
361 1 16.4 0.0 5.889523815
362 2 19.679999999967198 1.8937088829570627 4.34440811
363 3 19.679999999967198 1.8937088829570627 7.4346395199999975
364 1 18.04 2.840563324464 5.889523815
365 2 21.319999999967198 4.734272207421062 4.34440811
366 3 21.319999999967198 4.734272207421062 7.4346395199999975
367 1 19.68 5.681126648928 5.889523815
368 2 22.9599999999672 7.574835531885062 4.34440811
369 3 22.9599999999672 7.574835531885062 7.4346395199999975
370 1 21.32 8.521689973392 5.889523815
371 2 24.5999999999672 10.415398856349062 4.34440811
372 3 24.5999999999672 10.415398856349062 7.4346395199999975
373 1 22.959999999999997 11.362253297856 5.889523815
374 2 26.239999999967196 13.255962180813063 4.34440811
375 3 26.239999999967196 13.255962180813063 7.4346395199999975
376 1 24.599999999999998 14.202816622319999 5.889523815
377 2 27.879999999967197 16.09652550527706 4.34440811
378 3 27.879999999967197 16.09652550527706 7.4346395199999975
379 1 26.24 17.043379946784 5.889523815
380 2 29.519999999967197 18.937088829741064 4.34440811
381 3 29.519999999967197 18.937088829741064 7.4346395199999975
382 1 27.879999999999995 19.883943271247997 5.889523815
383 2 31.159999999967194 21.77765215420506 4.34440811
384 3 31.159999999967194 21.77765215420506 7.4346395199999975
385 1 29.519999999999996 22.724506595712 5.889523815
386 2 32.7999999999672 24.618215478669065 4.34440811
387 3 32.7999999999672 24.618215478669065 7.4346395199999975
388 1 31.159999999999997 25.565069920176 5.889523815
389 2 34.4399999999672 27.458778803133065 4.34440811
390 3 34.4399999999672 27.458778803133065 7.4346395199999975
391 1 32.8 28.405633244639997 5.889523815
392 2 36.0799999999672 30.29934212759706 4.34440811
393 3 36.0799999999672 30.29934212759706 7.4346395199999975
394 1 34.44 31.246196569104 5.889523815
395 2 37.7199999999672 33.139905452061065 4.34440811
396 3 37.7199999999672 33.139905452061065 7.4346395199999975
397 1 36.08 34.086759893567994 5.889523815
398 2 39.3599999999672 35.980468776525065 4.34440811
399 3 39.3599999999672 35.980468776525065 7.4346395199999975
400 1 37.72 36.927323218032 5.889523815
401 2 40.9999999999672 38.821032100989065 4.34440811
402 3 40.9999999999672 38.821032100989065 7.4346395199999975
403 1 39.35999999999999 39.767886542495994 5.889523815
404 2 42.639999999967195 41.66159542545306 4.34440811
405 3 42.639999999967195 41.66159542545306 7.4346395199999975
406 1 41.0 42.60844986696 5.889523815
407 2 44.2799999999672 44.502158749917065 4.34440811
408 3 44.2799999999672 44.502158749917065 7.4346395199999975
409 1 42.63999999999999 45.449013191424 5.889523815
410 2 45.919999999967196 47.342722074381065 4.34440811
411 3 45.919999999967196 47.342722074381065 7.4346395199999975
412 1 44.279999999999994 48.289576515887994 5.889523815
413 2 47.5599999999672 50.18328539884506 4.34440811
414 3 47.5599999999672 50.18328539884506 7.4346395199999975
415 1 45.92 51.130139840352 5.889523815
416 2 49.199999999967204 53.023848723309065 4.34440811
417 3 49.199999999967204 53.023848723309065 7.4346395199999975
418 1 47.559999999999995 53.970703164816 5.889523815
419 2 50.8399999999672 55.864412047773065 4.34440811
420 3 50.8399999999672 55.864412047773065 7.4346395199999975
421 1 49.199999999999996 56.811266489279994 5.889523815
422 2 52.4799999999672 58.70497537223706 4.34440811
423 3 52.4799999999672 58.70497537223706 7.4346395199999975
424 1 50.839999999999996 59.651829813744 5.889523815
425 2 54.1199999999672 61.545538696701065 4.34440811
426 3 54.1199999999672 61.545538696701065 7.4346395199999975
427 1 52.48 62.492393138208 5.889523815
428 2 55.7599999999672 64.38610202116506 4.34440811
429 3 55.7599999999672 64.38610202116506 7.4346395199999975
430 1 54.12 65.332956462672 5.889523815
431 2 57.3999999999672 67.22666534562906 4.34440811
432 3 57.3999999999672 67.22666534562906 7.4346395199999975
433 1 19.68 0.0 5.889523815
434 2 22.9599999999672 1.8937088829570627 4.34440811
435 3 22.9599999999672 1.8937088829570627 7.4346395199999975
436 1 21.32 2.840563324464 5.889523815
437 2 24.5999999999672 4.734272207421062 4.34440811
438 3 24.5999999999672 4.734272207421062 7.4346395199999975
439 1 22.96 5.681126648928 5.889523815
440 2 26.2399999999672 7.574835531885062 4.34440811
441 3 26.2399999999672 7.574835531885062 7.4346395199999975
442 1 24.6 8.521689973392 5.889523815
443 2 27.8799999999672 10.415398856349062 4.34440811
444 3 27.8799999999672 10.415398856349062 7.4346395199999975
445 1 26.24 11.362253297856 5.889523815
446 2 29.519999999967197 13.255962180813063 4.34440811
447 3 29.519999999967197 13.255962180813063 7.4346395199999975
448 1 27.88 14.202816622319999 5.889523815
449 2 31.159999999967198 16.09652550527706 4.34440811
450 3 31.159999999967198 16.09652550527706 7.4346395199999975
451 1 29.52 17.043379946784 5.889523815
452 2 32.7999999999672 18.937088829741064 4.34440811
453 3 32.7999999999672 18.937088829741064 7.4346395199999975
454 1 31.159999999999997 19.883943271247997 5.889523815
455 2 34.4399999999672 21.77765215420506 4.34440811
456 3 34.4399999999672 21.77765215420506 7.4346395199999975
457 1 32.8 22.724506595712 5.889523815
458 2 36.0799999999672 24.618215478669065 4.34440811
459 3 36.0799999999672 24.618215478669065 7.4346395199999975
460 1 34.44 25.565069920176 5.889523815
461 2 37.7199999999672 27.458778803133065 4.34440811
462 3 37.7199999999672 27.458778803133065 7.4346395199999975
463 1 36.08 28.405633244639997 5.889523815
464 2 39.3599999999672 30.29934212759706 4.34440811
465 3 39.3599999999672 30.29934212759706 7.4346395199999975
466 1 37.72 31.246196569104 5.889523815
467 2 40.9999999999672 33.139905452061065 4.34440811
468 3 40.9999999999672 33.139905452061065 7.4346395199999975
469 1 39.36 34.086759893567994 5.889523815
470 2 42.6399999999672 35.980468776525065 4.34440811
471 3 42.6399999999672 35.980468776525065 7.4346395199999975
472 1 41.0 36.927323218032 5.889523815
473 2 44.2799999999672 38.821032100989065 4.34440811
474 3 44.2799999999672 38.821032100989065 7.4346395199999975
475 1 42.63999999999999 39.767886542495994 5.889523815
476 2 45.919999999967196 41.66159542545306 4.34440811
477 3 45.919999999967196 41.66159542545306 7.4346395199999975
478 1 44.28 42.60844986696 5.889523815
479 2 47.559999999967204 44.502158749917065 4.34440811
480 3 47.559999999967204 44.502158749917065 7.4346395199999975
481 1 45.919999999999995 45.449013191424 5.889523815
482 2 49.1999999999672 47.342722074381065 4.34440811
483 3 49.1999999999672 47.342722074381065 7.4346395199999975
484 1 47.559999999999995 48.289576515887994 5.889523815
485 2 50.8399999999672 50.18328539884506 4.34440811
486 3 50.8399999999672 50.18328539884506 7.4346395199999975
487 1 49.2 51.130139840352 5.889523815
488 2 52.479999999967205 53.023848723309065 4.34440811
489 3 52.479999999967205 53.023848723309065 7.4346395199999975
490 1 50.839999999999996 53.970703164816 5.889523815
491 2 54.1199999999672 55.864412047773065 4.34440811
492 3 54.1199999999672 55.864412047773065 7.4346395199999975
493 1 52.48 56.811266489279994 5.889523815
494 2 55.7599999999672 58.70497537223706 4.34440811
495 3 55.7599999999672 58.70497537223706 7.4346395199999975
496 1 54.12 59.651829813744 5.889523815
497 2 57.3999999999672 61.545538696701065 4.34440811
498 3 57.3999999999672 61.545538696701065 7.4346395199999975
499 1 55.76 62.492393138208 5.889523815
500 2 59.0399999999672 64.38610202116506 4.34440811
501 3 59.0399999999672 64.38610202116506 7.4346395199999975
502 1 57.4 65.332956462672 5.889523815
503 2 60.6799999999672 67.22666534562906 4.34440811
504 3 60.6799999999672 67.22666534562906 7.4346395199999975
505 1 22.959999999999997 0.0 5.889523815
506 2 26.239999999967196 1.8937088829570627 4.34440811
507 3 26.239999999967196 1.8937088829570627 7.4346395199999975
508 1 24.599999999999998 2.840563324464 5.889523815
509 2 27.879999999967197 4.734272207421062 4.34440811
510 3 27.879999999967197 4.734272207421062 7.4346395199999975
511 1 26.24 5.681126648928 5.889523815
512 2 29.519999999967197 7.574835531885062 4.34440811
513 3 29.519999999967197 7.574835531885062 7.4346395199999975
514 1 27.879999999999995 8.521689973392 5.889523815
515 2 31.159999999967194 10.415398856349062 4.34440811
516 3 31.159999999967194 10.415398856349062 7.4346395199999975
517 1 29.519999999999996 11.362253297856 5.889523815
518 2 32.7999999999672 13.255962180813063 4.34440811
519 3 32.7999999999672 13.255962180813063 7.4346395199999975
520 1 31.159999999999997 14.202816622319999 5.889523815
521 2 34.4399999999672 16.09652550527706 4.34440811
522 3 34.4399999999672 16.09652550527706 7.4346395199999975
523 1 32.8 17.043379946784 5.889523815
524 2 36.0799999999672 18.937088829741064 4.34440811
525 3 36.0799999999672 18.937088829741064 7.4346395199999975
526 1 34.44 19.883943271247997 5.889523815
527 2 37.7199999999672 21.77765215420506 4.34440811
528 3 37.7199999999672 21.77765215420506 7.4346395199999975
529 1 36.08 22.724506595712 5.889523815
530 2 39.3599999999672 24.618215478669065 4.34440811
531 3 39.3599999999672 24.618215478669065 7.4346395199999975
532 1 37.72 25.565069920176 5.889523815
533 2 40.9999999999672 27.458778803133065 4.34440811
534 3 40.9999999999672 27.458778803133065 7.4346395199999975
535 1 39.35999999999999 28.405633244639997 5.889523815
536 2 42.639999999967195 30.29934212759706 4.34440811
537 3 42.639999999967195 30.29934212759706 7.4346395199999975
538 1 40.99999999999999 31.246196569104 5.889523815
539 2 44.279999999967195 33.139905452061065 4.34440811
540 3 44.279999999967195 33.139905452061065 7.4346395199999975
541 1 42.64 34.086759893567994 5.889523815
542 2 45.9199999999672 35.980468776525065 4.34440811
543 3 45.9199999999672 35.980468776525065 7.4346395199999975
544 1 44.279999999999994 36.927323218032 5.889523815
545 2 47.5599999999672 38.821032100989065 4.34440811
546 3 47.5599999999672 38.821032100989065 7.4346395199999975
547 1 45.919999999999995 39.767886542495994 5.889523815
548 2 49.1999999999672 41.66159542545306 4.34440811
549 3 49.1999999999672 41.66159542545306 7.4346395199999975
550 1 47.559999999999995 42.60844986696 5.889523815
551 2 50.8399999999672 44.502158749917065 4.34440811
552 3 50.8399999999672 44.502158749917065 7.4346395199999975
553 1 49.199999999999996 45.449013191424 5.889523815
554 2 52.4799999999672 47.342722074381065 4.34440811
555 3 52.4799999999672 47.342722074381065 7.4346395199999975
556 1 50.839999999999996 48.289576515887994 5.889523815
557 2 54.1199999999672 50.18328539884506 4.34440811
558 3 54.1199999999672 50.18328539884506 7.4346395199999975
559 1 52.48 51.130139840352 5.889523815
560 2 55.7599999999672 53.023848723309065 4.34440811
561 3 55.7599999999672 53.023848723309065 7.4346395199999975
562 1 54.12 53.970703164816 5.889523815
563 2 57.3999999999672 55.864412047773065 4.34440811
564 3 57.3999999999672 55.864412047773065 7.4346395199999975