LAMMPS data file

2382 atoms
6 atom types
0.0 49.891846548552756 xlo xhi
0.0 43.20760655311562 ylo yhi
0.0 100.0 zlo zhi
-24.945923273585375 0.0 0.0 xy xz yz

Masses

1 10.81
2 14.007
3 10.81
4 14.007
5 10.81
6 14.007

Atoms

1 1 1 0.42 47.75541987017215 1.3060233718825933 49.99999999999999
2 1 2 -0.42 44.86496024934409 1.3785802258035107 49.99999999999999
3 1 1 0.42 45.55615711297498 0.10883528099021958 49.99999999999999
4 1 2 -0.42 42.66569749214692 0.18139213491114606 49.99999999999999
5 1 1 0.42 45.61899319179153 2.6120467437651755 49.99999999999999
6 1 2 -0.42 42.728533570963464 2.6846035976861016 49.99999999999999
7 1 1 0.42 43.41973043459436 1.4148586528728044 49.99999999999999
8 1 2 -0.42 40.52927081376634 1.4874155067937247 49.99999999999999
9 1 1 0.42 41.2204676773972 0.2176705619804368 49.99999999999999
10 1 2 -0.42 38.33000805656914 0.2902274159013572 49.99999999999999
11 1 1 0.42 45.68182927060808 5.115258206540137 49.99999999999999
12 1 2 -0.42 42.791369649780016 5.187815060461057 49.99999999999999
13 1 1 0.42 43.48256651341091 3.918070115647766 49.99999999999999
14 1 2 -0.42 40.59210689258285 3.9906269695686896 49.99999999999999
15 1 1 0.42 41.28330375621375 2.7208820247553924 49.99999999999999
16 1 2 -0.42 38.392844135385694 2.79343887867631 49.99999999999999
17 1 1 0.42 39.08404099901659 1.5236939338630187 49.99999999999999
18 1 2 -0.42 36.19358137818853 1.5962507877839391 49.99999999999999
19 1 1 0.42 36.884778241819426 0.326505842970648 49.99999999999999
20 1 2 -0.42 33.99431862099136 0.39906269689156837 49.99999999999999
21 1 1 0.42 43.545402592227454 6.42128157842273 49.99999999999999
22 1 2 -0.42 40.65494297139939 6.493838432343651 49.99999999999999
23 1 1 0.42 41.34613983503029 5.224093487530354 49.99999999999999
24 1 2 -0.42 38.45568021420224 5.296650341451274 49.99999999999999
25 1 1 0.42 39.14687707783313 4.026905396637986 49.99999999999999
26 1 2 -0.42 36.256417457005064 4.099462250558907 49.99999999999999
27 1 1 0.42 36.947614320635964 2.8297173057456098 49.99999999999999
28 1 2 -0.42 34.0571546998079 2.902274159666533 49.99999999999999
29 1 1 0.42 34.7483515634388 1.6325292148532358 49.99999999999999
30 1 2 -0.42 31.857891942610745 1.7050860687741531 49.99999999999999
31 1 1 0.42 32.549088806241635 0.43534112396086827 49.99999999999999
32 1 2 -0.42 29.65862918541358 0.5078979778817856 49.99999999999999
33 1 1 0.42 43.60823867104401 8.924493041197683 49.99999999999999
34 1 2 -0.42 40.71777905021595 8.997049895118604 49.99999999999999
35 1 1 0.42 41.40897591384684 7.727304950305312 49.99999999999999
36 1 2 -0.42 38.51851629301879 7.799861804226229 49.99999999999999
37 1 1 0.42 39.20971315664968 6.530116859412942 49.99999999999999
38 1 2 -0.42 36.31925353582163 6.602673713333859 49.99999999999999
39 1 1 0.42 37.01045039945251 5.332928768520571 49.99999999999999
40 1 2 -0.42 34.11999077862445 5.405485622441491 49.99999999999999
41 1 1 0.42 34.81118764225535 4.135740677628195 49.99999999999999
42 1 2 -0.42 31.920728021427294 4.208297531549116 49.99999999999999
43 1 1 0.42 32.61192488505819 2.938552586735821 49.99999999999999
44 1 2 -0.42 29.721465264230126 3.011109440656743 49.99999999999999
45 1 1 0.42 30.412662127861026 1.7413644958434547 49.99999999999999
46 1 2 -0.42 27.52220250703296 1.813921349764375 49.99999999999999
47 1 1 0.42 28.213399370663858 0.5441764049510778 49.99999999999999
48 1 2 -0.42 25.322939749835793 0.6167332588719968 49.99999999999999
49 1 1 0.42 41.47181199266339 10.230516413080272 49.99999999999999
50 1 2 -0.42 38.58135237183533 10.303073267001192 49.99999999999999
51 1 1 0.42 39.272549235466236 9.0333283221879 49.99999999999999
52 1 2 -0.42 36.38208961463817 9.105885176108824 49.99999999999999
53 1 1 0.42 37.073286478269054 7.83614023129553 49.99999999999999
54 1 2 -0.42 34.18282685744099 7.908697085216452 49.99999999999999
55 1 1 0.42 34.87402372107189 6.638952140403158 49.99999999999999
56 1 2 -0.42 31.983564100243836 6.71150899432408 49.99999999999999
57 1 1 0.42 32.67476096387474 5.4417640495107795 49.99999999999999
58 1 2 -0.42 29.784301343046668 5.514320903431705 49.99999999999999
59 1 1 0.42 30.47549820667756 4.244575958618412 49.99999999999999
60 1 2 -0.42 27.585038585849507 4.3171328125393345 49.99999999999999
61 1 1 0.42 28.276235449480403 3.0473878677260395 49.99999999999999
62 1 2 -0.42 25.385775828652335 3.119944721646958 49.99999999999999
63 1 1 0.42 26.076972692283235 1.8501997768336673 49.99999999999999
64 1 2 -0.42 23.18651307145518 1.9227566307545878 49.99999999999999
65 1 1 0.42 23.877709935086074 0.6530116859412967 49.99999999999999
66 1 2 -0.42 20.987250314258016 0.725568539862214 49.99999999999999
67 1 1 0.42 41.534648071479936 12.733727875855235 49.99999999999999
68 1 2 -0.42 38.64418845065188 12.806284729776156 49.99999999999999
69 1 1 0.42 39.33538531428279 11.536539784962855 49.99999999999999
70 1 2 -0.42 36.444925693454714 11.609096638883784 49.99999999999999
71 1 1 0.42 37.13612255708561 10.33935169407049 49.99999999999999
72 1 2 -0.42 34.24566293625755 10.411908547991406 49.99999999999999
73 1 1 0.42 34.936859799888445 9.142163603178115 49.99999999999999
74 1 2 -0.42 32.04640017906038 9.214720457099038 49.99999999999999
75 1 1 0.42 32.73759704269128 7.944975512285747 49.99999999999999
76 1 2 -0.42 29.847137421863213 8.017532366206666 49.99999999999999
77 1 1 0.42 30.538334285494106 6.747787421393371 49.99999999999999
78 1 2 -0.42 27.647874664666052 6.820344275314291 49.99999999999999
79 1 1 0.42 28.33907152829695 5.550599330501001 49.99999999999999
80 1 2 -0.42 25.448611907468887 5.62315618442192 49.99999999999999
81 1 1 0.42 26.139808771099784 4.3534112396086275 49.99999999999999
82 1 2 -0.42 23.249349150271726 4.425968093529548 49.99999999999999
83 1 1 0.42 23.940546013902622 3.1562231487162538 49.99999999999999
84 1 2 -0.42 21.050086393074565 3.2287800026371722 49.99999999999999
85 1 1 0.42 21.741283256705454 1.959035057823883 49.99999999999999
86 1 2 -0.42 18.8508236358774 2.0315919117448016 49.99999999999999
87 1 1 0.42 19.542020499508293 0.7618469669315093 49.99999999999999
88 1 2 -0.42 16.651560878680232 0.8344038208524268 49.99999999999999
89 1 1 0.42 39.39822139309933 14.039751247737824 49.99999999999999
90 1 2 -0.42 36.507761772271266 14.112308101658742 49.99999999999999
91 1 1 0.42 37.19895863590216 12.842563156845449 49.99999999999999
92 1 2 -0.42 34.3084990150741 12.91512001076637 49.99999999999999
93 1 1 0.42 34.999695878705 11.645375065953075 49.99999999999999
94 1 2 -0.42 32.10923625787693 11.717931919873992 49.99999999999999
95 1 1 0.42 32.80043312150784 10.448186975060706 49.99999999999999
96 1 2 -0.42 29.90997350067977 10.520743828981624 49.99999999999999
97 1 1 0.42 30.601170364310658 9.250998884168334 49.99999999999999
98 1 2 -0.42 27.710710743482604 9.323555738089253 49.99999999999999
99 1 1 0.42 28.4019076071135 8.053810793275956 49.99999999999999
100 1 2 -0.42 25.511447986285432 8.12636764719688 49.99999999999999
101 1 1 0.42 26.202644849916332 6.856622702383589 49.99999999999999
102 1 2 -0.42 23.31218522908827 6.929179556304507 49.99999999999999
103 1 1 0.42 24.003382092719168 5.659434611491214 49.99999999999999
104 1 2 -0.42 21.112922471891107 5.731991465412136 49.99999999999999
105 1 1 0.42 21.804119335522007 4.462246520598842 49.99999999999999
106 1 2 -0.42 18.913659714693946 4.534803374519762 49.99999999999999
107 1 1 0.42 19.60485657832484 3.265058429706471 49.99999999999999
108 1 2 -0.42 16.714396957496778 3.337615283627391 49.99999999999999
109 1 1 0.42 17.405593821127674 2.0678703388140973 49.99999999999999
110 1 2 -0.42 14.515134200299615 2.140427192735017 49.99999999999999
111 1 1 0.42 15.206331063930513 0.8706822479217273 49.99999999999999
112 1 2 -0.42 12.315871443102449 0.9432391018426469 49.99999999999999
113 1 1 0.42 39.461057471915865 16.542962710512782 49.99999999999999
114 1 2 -0.42 36.570597851087804 16.615519564433704 49.99999999999999
115 1 1 0.42 37.26179471471871 15.345774619620416 49.99999999999999
116 1 2 -0.42 34.37133509389064 15.418331473541333 49.99999999999999
117 1 1 0.42 35.06253195752154 14.148586528728037 49.99999999999999
118 1 2 -0.42 32.17207233669349 14.221143382648949 49.99999999999999
119 1 1 0.42 32.86326920032437 12.951398437835664 49.99999999999999
120 1 2 -0.42 29.97280957949632 13.023955291756584 49.99999999999999
121 1 1 0.42 30.664006443127214 11.754210346943294 49.99999999999999
122 1 2 -0.42 27.773546822299153 11.82676720086421 49.99999999999999
123 1 1 0.42 28.464743685930046 10.55702225605092 49.99999999999999
124 1 2 -0.42 25.574284065101985 10.629579109971841 49.99999999999999
125 1 1 0.42 26.265480928732874 9.359834165158551 49.99999999999999
126 1 2 -0.42 23.375021307904824 9.43239101907947 49.99999999999999
127 1 1 0.42 24.066218171535716 8.162646074266176 49.99999999999999
128 1 2 -0.42 21.175758550707663 8.235202928187096 49.99999999999999
129 1 1 0.42 21.86695541433855 6.9654579833738035 49.99999999999999
130 1 2 -0.42 18.976495793510487 7.038014837294723 49.99999999999999
131 1 1 0.42 19.667692657141394 5.7682698924814275 49.99999999999999
132 1 2 -0.42 16.777233036313323 5.8408267464023504 49.99999999999999
133 1 1 0.42 17.468429899944223 4.571081801589058 49.99999999999999
134 1 2 -0.42 14.577970279116162 4.64363865550998 49.99999999999999
135 1 1 0.42 15.269167142747053 3.3738937106966853 49.99999999999999
136 1 2 -0.42 12.378707521918995 3.4464505646176056 49.99999999999999
137 1 1 0.42 13.069904385549892 2.1767056198043138 49.99999999999999
138 1 2 -0.42 10.179444764721831 2.2492624737252336 49.99999999999999
139 1 1 0.42 10.870641628352727 0.9795175289119415 49.99999999999999
140 1 2 -0.42 7.980182007524668 1.0520743828328611 49.99999999999999
141 1 1 0.42 37.32463079353525 17.84898608239537 49.99999999999999
142 1 2 -0.42 34.4341711727072 17.921542936316293 49.99999999999999
143 1 1 0.42 35.12536803633809 16.651797991503 49.99999999999999
144 1 2 -0.42 32.234908415510034 16.72435484542392 49.99999999999999
145 1 1 0.42 32.92610527914093 15.454609900610626 49.99999999999999
146 1 2 -0.42 30.03564565831286 15.527166754531544 49.99999999999999
147 1 1 0.42 30.72684252194376 14.257421809718254 49.99999999999999
148 1 2 -0.42 27.8363829011157 14.329978663639173 49.99999999999999
149 1 1 0.42 28.527579764746594 13.060233718825877 49.99999999999999
150 1 2 -0.42 25.63712014391853 13.132790572746796 49.99999999999999
151 1 1 0.42 26.328317007549423 11.86304562793351 49.99999999999999
152 1 2 -0.42 23.43785738672137 11.935602481854428 49.99999999999999
153 1 1 0.42 24.12905425035226 10.665857537041134 49.99999999999999
154 1 2 -0.42 21.238594629524197 10.738414390962054 49.99999999999999
155 1 1 0.42 21.929791493155093 9.468669446148766 49.99999999999999
156 1 2 -0.42 19.039331872327036 9.541226300069683 49.99999999999999
157 1 1 0.42 19.730528735957932 8.271481355256391 49.99999999999999
158 1 2 -0.42 16.840069115129868 8.344038209177313 49.99999999999999
159 1 1 0.42 17.53126597876077 7.074293264364019 49.99999999999999
160 1 2 -0.42 14.64080635793271 7.146850118284938 49.99999999999999
161 1 1 0.42 15.332003221563607 5.877105173471647 49.99999999999999
162 1 2 -0.42 12.441543600735544 5.949662027392566 49.99999999999999
163 1 1 0.42 13.132740464366437 4.6799170825792755 49.99999999999999
164 1 2 -0.42 10.242280843538383 4.752473936500197 49.99999999999999
165 1 1 0.42 10.933477707169274 3.4827289916869018 49.99999999999999
166 1 2 -0.42 8.043018086341213 3.555285845607821 49.99999999999999
167 1 1 0.42 8.734214949972111 2.285540900794529 49.99999999999999
168 1 2 -0.42 5.8437553291440505 2.358097754715449 49.99999999999999
169 1 1 0.42 6.534952192774946 1.0883528099021569 49.99999999999999
170 1 2 -0.42 3.6444925719468837 1.160909663823077 49.99999999999999
171 1 1 0.42 37.38746687235181 20.352197545170327 49.99999999999999
172 1 2 -0.42 34.49700725152375 20.424754399091242 49.99999999999999
173 1 1 0.42 35.18820411515462 19.15500945427796 49.99999999999999
174 1 2 -0.42 32.29774449432658 19.22756630819888 49.99999999999999
175 1 1 0.42 32.98894135795747 17.957821363385584 49.99999999999999
176 1 2 -0.42 30.098481737129404 18.03037821730651 49.99999999999999
177 1 1 0.42 30.78967860076031 16.76063327249321 49.99999999999999
178 1 2 -0.42 27.89921897993224 16.83319012641413 49.99999999999999
179 1 1 0.42 28.590415843563136 15.563445181600843 49.99999999999999
180 1 2 -0.42 25.699956222735068 15.636002035521763 49.99999999999999
181 1 1 0.42 26.391153086365968 14.366257090708466 49.99999999999999
182 1 2 -0.42 23.500693465537914 14.438813944629386 49.99999999999999
183 1 1 0.42 24.191890329168814 13.169068999816101 49.99999999999999
184 1 2 -0.42 21.301430708340757 13.24162585373702 49.99999999999999
185 1 1 0.42 21.992627571971653 11.97188090892372 49.99999999999999
186 1 2 -0.42 19.102167951143585 12.044437762844641 49.99999999999999
187 1 1 0.42 19.793364814774478 10.774692818031353 49.99999999999999
188 1 2 -0.42 16.902905193946424 10.847249671952273 49.99999999999999
189 1 1 0.42 17.59410205757731 9.57750472713898 49.99999999999999
190 1 2 -0.42 14.70364243674926 9.650061581059896 49.99999999999999
191 1 1 0.42 15.394839300380156 8.380316636246604 49.99999999999999
192 1 2 -0.42 12.504379679552088 8.452873490167525 49.99999999999999
193 1 1 0.42 13.195576543182984 7.183128545354233 49.99999999999999
194 1 2 -0.42 10.305116922354925 7.255685399275154 49.99999999999999
195 1 1 0.42 10.996313785985826 5.98594045446186 49.99999999999999
196 1 2 -0.42 8.105854165157764 6.05849730838278 49.99999999999999
197 1 1 0.42 8.797051028788655 4.78875236356949 49.99999999999999
198 1 2 -0.42 5.9065914079605975 4.861309217490408 49.99999999999999
199 1 1 0.42 6.597788271591492 3.5915642726771164 49.99999999999999
200 1 2 -0.42 3.707328650763431 3.664121126598037 49.99999999999999
201 1 1 0.42 4.398525514394327 2.394376181784745 49.99999999999999
202 1 2 -0.42 1.5080658935662679 2.466933035705664 49.99999999999999
203 1 1 0.42 2.1992627571971637 1.1971880908923724 49.99999999999999
204 1 2 -0.42 -0.6911968636308969 1.2697449448132923 49.99999999999999
205 1 1 0.42 0.0 0.0 49.99999999999999
206 1 2 -0.42 47.0013869277247 0.07255685392091671 49.99999999999999
207 1 1 0.42 35.251040193971185 21.658220917052912 49.99999999999999
208 1 2 -0.42 32.360580573143125 21.730777770973845 49.99999999999999
209 1 1 0.42 33.05177743677401 20.461032826160537 49.99999999999999
210 1 2 -0.42 30.161317815945964 20.53358968008146 49.99999999999999
211 1 1 0.42 30.852514679576856 19.263844735268176 49.99999999999999
212 1 2 -0.42 27.9620550587488 19.336401589189094 49.99999999999999
213 1 1 0.42 28.65325192237968 18.0666566443758 49.99999999999999
214 1 2 -0.42 25.762792301551624 18.13921349829672 49.99999999999999
215 1 1 0.42 26.45398916518252 16.86946855348343 49.99999999999999
216 1 2 -0.42 23.56352954435446 16.94202540740435 49.99999999999999
217 1 1 0.42 24.25472640798536 15.672280462591054 49.99999999999999
218 1 2 -0.42 21.364266787157298 15.744837316511978 49.99999999999999
219 1 1 0.42 22.055463650788198 14.475092371698688 49.99999999999999
220 1 2 -0.42 19.16500402996013 14.547649225619608 49.99999999999999
221 1 1 0.42 19.85620089359103 13.277904280806307 49.99999999999999
222 1 2 -0.42 16.965741272762976 13.350461134727228 49.99999999999999
223 1 1 0.42 17.656938136393865 12.08071618991394 49.99999999999999
224 1 2 -0.42 14.766478515565803 12.153273043834862 49.99999999999999
225 1 1 0.42 15.457675379196704 10.883528099021568 49.99999999999999
226 1 2 -0.42 12.567215758368642 10.956084952942486 49.99999999999999
227 1 1 0.42 13.258412621999533 9.686340008129195 49.99999999999999
228 1 2 -0.42 10.367953001171479 9.758896862050117 49.99999999999999
229 1 1 0.42 11.059149864802372 8.48915191723682 49.99999999999999
230 1 2 -0.42 8.16869024397431 8.56170877115774 49.99999999999999
231 1 1 0.42 8.859887107605207 7.291963826344451 49.99999999999999
232 1 2 -0.42 5.969427486777145 7.36452068026537 49.99999999999999
233 1 1 0.42 6.6606243504080425 6.094775735452077 49.99999999999999
234 1 2 -0.42 3.7701647295799807 6.167332589372997 49.99999999999999
235 1 1 0.42 4.461361593210876 4.897587644559704 49.99999999999999
236 1 2 -0.42 1.5709019723828148 4.970144498480624 49.99999999999999
237 1 1 0.42 2.2620988360137115 3.7003995536673315 49.99999999999999
238 1 2 -0.42 -0.6283607848143493 3.7729564075882527 49.99999999999999
239 1 1 0.42 0.0628360788165474 2.50321146277496 49.99999999999999
240 1 2 -0.42 47.06422300654125 2.575768316695878 49.99999999999999
241 1 1 0.42 35.31387627278773 24.16143237982788 49.99999999999999
242 1 2 -0.42 32.42341665195968 24.233989233748805 49.99999999999999
243 1 1 0.42 33.11461351559056 22.964244288935504 49.99999999999999
244 1 2 -0.42 30.2241538947625 23.036801142856426 49.99999999999999
245 1 1 0.42 30.91535075839341 21.767056198043136 49.99999999999999
246 1 2 -0.42 28.024891137565344 21.83961305196405 49.99999999999999
247 1 1 0.42 28.716088001196248 20.56986810715076 49.99999999999999
248 1 2 -0.42 25.82562838036818 20.642424961071683 49.99999999999999
249 1 1 0.42 26.516825243999065 19.37268001625839 49.99999999999999
250 1 2 -0.42 23.62636562317101 19.44523687017931 49.99999999999999
251 1 1 0.42 24.317562486801904 18.175491925366018 49.99999999999999
252 1 2 -0.42 21.427102865973843 18.24804877928694 49.99999999999999
253 1 1 0.42 22.118299729604743 16.97830383447364 49.99999999999999
254 1 2 -0.42 19.227840108776682 17.050860688394565 49.99999999999999
255 1 1 0.42 19.91903697240757 15.781115743581276 49.99999999999999
256 1 2 -0.42 17.02857735157952 15.853672597502191 49.99999999999999
257 1 1 0.42 17.719774215210414 14.583927652688901 49.99999999999999
258 1 2 -0.42 14.82931459438235 14.656484506609818 49.99999999999999
259 1 1 0.42 15.520511458013246 13.386739561796528 49.99999999999999
260 1 2 -0.42 12.630051837185185 13.459296415717448 49.99999999999999
261 1 1 0.42 13.321248700816085 12.189551470904155 49.99999999999999
262 1 2 -0.42 10.43078907998802 12.262108324825075 49.99999999999999
263 1 1 0.42 11.121985943618924 10.992363380011783 49.99999999999999
264 1 2 -0.42 8.23152632279086 11.064920233932703 49.99999999999999
265 1 1 0.42 8.922723186421752 9.795175289119408 49.99999999999999
266 1 2 -0.42 6.032263565593694 9.86773214304033 49.99999999999999
267 1 1 0.42 6.723460429224591 8.597987198227036 49.99999999999999
268 1 2 -0.42 3.8330008083965286 8.670544052147957 49.99999999999999
269 1 1 0.42 4.524197672027423 7.400799107334663 49.99999999999999
270 1 2 -0.42 1.633738051199364 7.473355961255583 49.99999999999999
271 1 1 0.42 2.3249349148302603 6.203611016442292 49.99999999999999
272 1 2 -0.42 -0.565524705997801 6.2761678703632136 49.99999999999999
273 1 1 0.42 0.1256721576330948 5.00642292554992 49.99999999999999
274 1 2 -0.42 -2.764787463194966 5.078979779470841 49.99999999999999
275 1 1 0.42 -2.0735905995640693 3.809234834657548 49.99999999999999
276 1 2 -0.42 44.92779632816063 3.8817916885784665 49.99999999999999
277 1 1 0.42 33.17744959440711 25.467455751710467 49.99999999999999
278 1 2 -0.42 30.286989973579047 25.54001260563139 49.99999999999999
279 1 1 0.42 30.978186837209947 24.270267660818096 49.99999999999999
280 1 2 -0.42 28.08772721638189 24.342824514739014 49.99999999999999
281 1 1 0.42 28.778924080012793 23.073079569925714 49.99999999999999
282 1 2 -0.42 25.888464459184725 23.145636423846643 49.99999999999999
283 1 1 0.42 26.579661322815625 21.875891479033353 49.99999999999999
284 1 2 -0.42 23.689201701987557 21.94844833295427 49.99999999999999
285 1 1 0.42 24.380398565618457 20.678703388140978 49.99999999999999
286 1 2 -0.42 21.489938944790403 20.7512602420619 49.99999999999999
287 1 1 0.42 22.18113580842129 19.481515297248603 49.99999999999999
288 1 2 -0.42 19.290676187593228 19.55407215116952 49.99999999999999
289 1 1 0.42 19.981873051224127 18.28432720635623 49.99999999999999
290 1 2 -0.42 17.091413430396074 18.356884060277153 49.99999999999999
291 1 1 0.42 17.782610294026966 17.08713911546386 49.99999999999999
292 1 2 -0.42 14.8921506731989 17.159695969384778 49.99999999999999
293 1 1 0.42 15.583347536829793 15.889951024571484 49.99999999999999
294 1 2 -0.42 12.692887916001728 15.962507878492406 49.99999999999999
295 1 1 0.42 13.384084779632627 14.692762933679118 49.99999999999999
296 1 2 -0.42 10.493625158804573 14.765319787600042 49.99999999999999
297 1 1 0.42 11.184822022435469 13.495574842786743 49.99999999999999
298 1 2 -0.42 8.294362401607405 13.568131696707663 49.99999999999999
299 1 1 0.42 8.985559265238305 12.298386751894368 49.99999999999999
300 1 2 -0.42 6.095099644410241 12.37094360581529 49.99999999999999
301 1 1 0.42 6.786296508041139 11.101198661001996 49.99999999999999
302 1 2 -0.42 3.895836887213079 11.173755514922918 49.99999999999999
303 1 1 0.42 4.587033750843972 9.904010570109627 49.99999999999999
304 1 2 -0.42 1.6965741300159127 9.976567424030545 49.99999999999999
305 1 1 0.42 2.3877709936468063 8.706822479217251 49.99999999999999
306 1 2 -0.42 -0.5026886271812527 8.779379333138174 49.99999999999999
307 1 1 0.42 0.18850823644964354 7.509634388324881 49.99999999999999
308 1 2 -0.42 -2.701951384378419 7.582191242245799 49.99999999999999
309 1 1 0.42 -2.010754520747522 6.312446297432507 49.99999999999999
310 1 2 -0.42 44.99063240697718 6.385003151353428 49.99999999999999
311 1 1 0.42 33.24028567322366 27.970667214485417 49.99999999999999
312 1 2 -0.42 30.349826052395603 28.043224068406357 49.99999999999999
313 1 1 0.42 31.041022916026492 26.773479123593056 49.99999999999999
314 1 2 -0.42 28.150563295198445 26.846035977513978 49.99999999999999
315 1 1 0.42 28.84176015882933 25.576291032700684 49.99999999999999
316 1 2 -0.42 25.95130053800127 25.648847886621606 49.99999999999999
317 1 1 0.42 26.64249740163217 24.37910294180831 49.99999999999999
318 1 2 -0.42 23.752037780804102 24.451659795729228 49.99999999999999
319 1 1 0.42 24.44323464443501 23.181914850915938 49.99999999999999
320 1 2 -0.42 21.55277502360694 23.254471704836856 49.99999999999999
321 1 1 0.42 22.243971887237848 21.984726760023566 49.99999999999999
322 1 2 -0.42 19.35351226640978 22.057283613944485 49.99999999999999
323 1 1 0.42 20.044709130040673 20.78753866913119 49.99999999999999
324 1 2 -0.42 17.154249509212605 20.860095523052106 49.99999999999999
325 1 1 0.42 17.845446372843504 19.590350578238816 49.99999999999999
326 1 2 -0.42 14.954986752015444 19.66290743215974 49.99999999999999
327 1 1 0.42 15.64618361564634 18.393162487346448 49.99999999999999
328 1 2 -0.42 12.75572399481828 18.46571934126737 49.99999999999999
329 1 1 0.42 13.446920858449182 17.195974396454073 49.99999999999999
330 1 2 -0.42 10.55646123762112 17.26853125037499 49.99999999999999
331 1 1 0.42 11.247658101252014 15.9987863055617 49.99999999999999
332 1 2 -0.42 8.357198480423957 16.071343159482623 49.99999999999999
333 1 1 0.42 9.048395344054846 14.801598214669326 49.99999999999999
334 1 2 -0.42 6.157935723226785 14.874155068590246 49.99999999999999
335 1 1 0.42 6.849132586857687 13.60441012377696 49.99999999999999
336 1 2 -0.42 3.9586729660296225 13.67696697769788 49.99999999999999
337 1 1 0.42 4.6498698296605205 12.407222032884585 49.99999999999999
338 1 2 -0.42 1.7594102088324615 12.479778886805505 49.99999999999999
339 1 1 0.42 2.450607072463354 11.210033941992211 49.99999999999999
340 1 2 -0.42 -0.4398525483647049 11.282590795913132 49.99999999999999
341 1 1 0.42 0.2513443152661896 10.01284585109984 49.99999999999999
342 1 2 -0.42 -2.6391153055618717 10.08540270502076 49.99999999999999
343 1 1 0.42 -1.947918441930974 8.815657760207467 49.99999999999999
344 1 2 -0.42 -4.838378062759036 8.888214614128387 49.99999999999999
345 1 1 0.42 -4.147181199128139 7.618469669315096 49.99999999999999
346 1 2 -0.42 42.85420572859656 7.691026523236016 49.99999999999999
347 1 1 0.42 31.103858994843044 29.276690586368012 49.99999999999999
348 1 2 -0.42 28.21339937401498 29.34924744028893 49.99999999999999
349 1 1 0.42 28.904596237645876 28.07950249547564 49.99999999999999
350 1 2 -0.42 26.014136616817815 28.152059349396566 49.99999999999999
351 1 1 0.42 26.705333480448715 26.88231440458327 49.99999999999999
352 1 2 -0.42 23.814873859620654 26.954871258504195 49.99999999999999
353 1 1 0.42 24.50607072325155 25.68512631369089 49.99999999999999
354 1 2 -0.42 21.615611102423493 25.757683167611813 49.99999999999999
355 1 1 0.42 22.30680796605438 24.487938222798523 49.99999999999999
356 1 2 -0.42 19.416348345226318 24.56049507671944 49.99999999999999
357 1 1 0.42 20.10754520885724 23.29075013190615 49.99999999999999
358 1 2 -0.42 17.217085588029168 23.363306985827073 49.99999999999999
359 1 1 0.42 17.908282451660064 22.093562041013776 49.99999999999999
360 1 2 -0.42 15.017822830831998 22.166118894934698 49.99999999999999
361 1 1 0.42 15.709019694462887 20.896373950121408 49.99999999999999
362 1 2 -0.42 12.818560073634828 20.968930804042326 49.99999999999999
363 1 1 0.42 13.509756937265726 19.699185859229036 49.99999999999999
364 1 2 -0.42 10.61929731643767 19.771742713149955 49.99999999999999
365 1 1 0.42 11.310494180068563 18.501997768336658 49.99999999999999
366 1 2 -0.42 8.420034559240502 18.57455462225758 49.99999999999999
367 1 1 0.42 9.1112314228714 17.30480967744429 49.99999999999999
368 1 2 -0.42 6.220771802043334 17.377366531365208 49.99999999999999
369 1 1 0.42 6.91196866567423 16.107621586551915 49.99999999999999
370 1 2 -0.42 4.0215090448461766 16.180178440472837 49.99999999999999
371 1 1 0.42 4.7127059084770675 14.910433495659547 49.99999999999999
372 1 2 -0.42 1.8222462876490102 14.98299034958047 49.99999999999999
373 1 1 0.42 2.5134431512799056 13.713245404767173 49.99999999999999
374 1 2 -0.42 -0.37701646954815704 13.785802258688094 49.99999999999999
375 1 1 0.42 0.31418039408273835 12.516057313874802 49.99999999999999
376 1 2 -0.42 -2.5762792267453207 12.588614167795722 49.99999999999999
377 1 1 0.42 -1.8850823631144253 11.318869222982427 49.99999999999999
378 1 2 -0.42 -4.775541983942487 11.391426076903347 49.99999999999999
379 1 1 0.42 -4.08434512031159 10.121681132090059 49.99999999999999
380 1 2 -0.42 42.91704180741311 10.194237986010975 49.99999999999999
381 1 1 0.42 31.166695073659586 31.77990204914297 49.99999999999999
382 1 2 -0.42 28.276235452831514 31.852458903063894 49.99999999999999
383 1 1 0.42 28.967432316462432 30.582713958250608 49.99999999999999
384 1 2 -0.42 26.076972695634357 30.655270812171516 49.99999999999999
385 1 1 0.42 26.768169559265253 29.385525867358236 49.99999999999999
386 1 2 -0.42 23.877709938437196 29.458082721279144 49.99999999999999
387 1 1 0.42 24.568906802068092 28.18833777646585 49.99999999999999
388 1 2 -0.42 21.678447181240035 28.26089463038677 49.99999999999999
389 1 1 0.42 22.369644044870938 26.991149685573486 49.99999999999999
390 1 2 -0.42 19.47918442404287 27.063706539494405 49.99999999999999
391 1 1 0.42 20.170381287673766 25.793961594681114 49.99999999999999
392 1 2 -0.42 17.279921666845716 25.866518448602033 49.99999999999999
393 1 1 0.42 17.97111853047661 24.596773503788736 49.99999999999999
394 1 2 -0.42 15.080658909648541 24.66933035770966 49.99999999999999
395 1 1 0.42 15.771855773279439 23.39958541289637 49.99999999999999
396 1 2 -0.42 12.88139615245138 23.47214226681729 49.99999999999999
397 1 1 0.42 13.572593016082278 22.202397322003993 49.99999999999999
398 1 2 -0.42 10.682133395254215 22.27495417592491 49.99999999999999
399 1 1 0.42 11.373330258885117 21.00520923111162 49.99999999999999
400 1 2 -0.42 8.482870638057049 21.077766085032543 49.99999999999999
401 1 1 0.42 9.174067501687944 19.808021140219253 49.99999999999999
402 1 2 -0.42 6.283607880859879 19.88057799414017 49.99999999999999
403 1 1 0.42 6.974804744490779 18.610833049326878 49.99999999999999
404 1 2 -0.42 4.08434512366272 18.6833899032478 49.99999999999999
405 1 1 0.42 4.775541987293613 17.413644958434503 49.99999999999999
406 1 2 -0.42 1.8850823664655536 17.486201812355425 49.99999999999999
407 1 1 0.42 2.5762792300964517 16.216456867542135 49.99999999999999
408 1 2 -0.42 -0.3141803907316074 16.289013721463057 49.99999999999999
409 1 1 0.42 0.3770164728992871 15.019268776649762 49.99999999999999
410 1 2 -0.42 -2.51344314792877 15.091825630570682 49.99999999999999
411 1 1 0.42 -1.8222462842978775 13.82208068575739 49.99999999999999
412 1 2 -0.42 -4.71270590512594 13.89463753967831 49.99999999999999
413 1 1 0.42 -4.021509041495044 12.624892594865013 49.99999999999999
414 1 2 -0.42 -6.911968662323106 12.697449448785935 49.99999999999999
415 1 1 0.42 -6.2207717986922075 11.427704503972645 49.99999999999999
416 1 2 -0.42 40.7806151290325 11.50026135789356 49.99999999999999
417 1 1 0.42 29.030268395278966 33.085925421025564 49.99999999999999
418 1 2 -0.42 26.13980877445092 33.158482274946486 49.99999999999999
419 1 1 0.42 26.83100563808182 31.88873733013319 49.99999999999999
420 1 2 -0.42 23.940546017253755 31.96129418405411 49.99999999999999
421 1 1 0.42 24.631742880884655 30.691549239240818 49.99999999999999
422 1 2 -0.42 21.741283260056587 30.76410609316174 49.99999999999999
423 1 1 0.42 22.43248012368748 29.494361148348446 49.99999999999999
424 1 2 -0.42 19.54202050285942 29.566918002269368 49.99999999999999
425 1 1 0.42 20.23321736649032 28.29717305745607 49.99999999999999
426 1 2 -0.42 17.34275774566226 28.36972991137699 49.99999999999999
427 1 1 0.42 18.033954609293154 27.099984966563703 49.99999999999999
428 1 2 -0.42 15.143494988465088 27.17254182048462 49.99999999999999
429 1 1 0.42 15.834691852095984 25.902796875671328 49.99999999999999
430 1 2 -0.42 12.944232231267915 25.975353729592246 49.99999999999999
431 1 1 0.42 13.635429094898825 24.705608784778953 49.99999999999999
432 1 2 -0.42 10.74496947407076 24.778165638699875 49.99999999999999
433 1 1 0.42 11.43616633770165 23.508420693886585 49.99999999999999
434 1 2 -0.42 8.545706716873596 23.5809775478075 49.99999999999999
435 1 1 0.42 9.236903580504498 22.31123260299421 49.99999999999999
436 1 2 -0.42 6.346443959676433 22.383789456915135 49.99999999999999