ITEM: TIMESTEP
61959
ITEM: NUMBER OF ATOMS
1084
ITEM: BOX BOUNDS xy xz yz pp pp pp
0.0000000000000000e+00 6.0745066467205419e+01 2.0248355489444396e+01
0.0000000000000000e+00 3.5071180476738583e+01 0.0000000000000000e+00
0.0000000000000000e+00 3.4999999999999993e+01 0.0000000000000000e+00
ITEM: ATOMS id type x y z
1 1 20.1659 32.6117 17.2255
2 2 23.0057 32.5166 17.236
3 1 22.337 33.77 17.2255
4 2 25.1768 33.6751 17.2521
5 1 24.5081 34.9285 17.2412
6 2 27.3476 34.8341 17.2853
7 1 17.9132 28.9939 17.2739
8 2 20.7526 28.899 17.2685
9 1 20.0836 30.1523 17.2492
10 2 22.9235 30.0574 17.2604
11 1 22.2545 31.3106 17.2413
12 2 25.0945 31.216 17.269
13 1 24.4256 32.4692 17.2495
14 2 27.2654 32.375 17.2947
15 1 26.5966 33.6281 17.2743
16 2 29.4358 33.5348 17.3381
17 1 28.7672 34.7879 17.317
18 2 31.6056 34.6962 17.399
19 1 15.6643 25.3753 17.3783
20 2 18.5019 25.2815 17.3554
21 1 17.8324 26.5344 17.3256
22 2 20.6715 26.4402 17.3202
23 1 20.002 27.693 17.291
24 2 22.842 27.5987 17.303
25 1 22.1725 28.8515 17.2742
26 2 25.0128 28.7574 17.3035
27 1 24.3434 30.0101 17.2746
28 2 27.1836 29.9163 17.3218
29 1 26.5143 31.169 17.292
30 2 29.354 31.076 17.3578
31 1 28.6849 32.3286 17.327
32 2 31.5239 32.2372 17.4105
33 1 30.8551 33.4898 17.3795
34 2 33.6932 33.4012 17.4755
35 1 33.0247 34.6537 17.447
36 2 35.8625 34.5693 17.5435
37 1 13.4253 21.7528 17.5217
38 2 16.2579 21.6622 17.4918
39 1 15.5875 22.9147 17.4554
40 2 18.4237 22.8225 17.436
41 1 17.7533 24.0748 17.3968
42 2 20.592 23.9819 17.3922
43 1 19.9216 25.234 17.3528
44 2 22.7618 25.1408 17.365
45 1 22.0913 26.3928 17.3263
46 2 24.9324 26.2997 17.3563
47 1 24.2618 27.5515 17.3178
48 2 27.103 27.4586 17.3665
49 1 26.4326 28.7104 17.3275
50 2 29.2734 28.6181 17.3953
51 1 28.6031 29.8699 17.3552
52 2 31.4432 29.779 17.4408
53 1 30.7733 31.0308 17.4002
54 2 33.6124 30.9427 17.4981
55 1 32.943 32.1944 17.4593
56 2 35.7814 32.1105 17.5577
57 1 35.1123 33.3622 17.5248
58 2 37.9509 33.2835 17.6052
59 1 37.2818 34.5349 17.5838
60 2 40.1211 34.4607 17.6263
61 1 11.2016 18.1201 17.6211
62 2 14.0273 18.0348 17.6162
63 1 13.3562 19.2879 17.5901
64 2 16.1859 19.2005 17.5783
65 1 15.5145 20.4528 17.5399
66 2 18.3488 20.3634 17.5288
67 1 17.677 21.615 17.4838
68 2 20.5152 21.5243 17.4812
69 1 19.8432 22.7754 17.434
70 2 22.684 22.6841 17.4452
71 1 22.0117 23.9349 17.3981
72 2 24.8541 23.8434 17.4265
73 1 24.1816 25.0939 17.3798
74 2 27.0246 25.0025 17.4273
75 1 26.3521 26.2529 17.3805
76 2 29.1949 26.1618 17.4479
77 1 28.5226 27.4122 17.4005
78 2 31.3646 27.3223 17.4863
79 1 30.6927 28.5727 17.4384
80 2 33.5336 28.4853 17.5371
81 1 32.8623 29.7358 17.4904
82 2 35.7021 29.6525 17.5901
83 1 35.0314 30.9032 17.5483
84 2 37.8708 30.825 17.6307
85 1 37.2007 32.0758 17.5991
86 2 40.0404 32.002 17.644
87 1 39.3705 33.2531 17.6276
88 2 42.2104 33.1806 17.6221
89 1 41.5409 34.4321 17.6229
90 2 44.3802 34.3571 17.569
91 1 8.98292 14.4829 17.585
92 2 11.8084 14.3977 17.6253
93 1 11.1375 15.6511 17.6253
94 2 13.9625 15.5676 17.6538
95 1 13.2908 16.8205 17.6361
96 2 16.1185 16.7368 17.6498
97 1 15.4458 17.9888 17.6166
98 2 18.2785 17.9035 17.6199
99 1 17.6048 19.1543 17.5761
100 2 20.4426 19.0672 17.5773
101 1 19.7681 20.317 17.5284
102 2 22.6099 20.2288 17.5365
103 1 21.9348 21.4779 17.4861
104 2 24.7793 21.389 17.5082
105 1 24.1038 22.6377 17.4581
106 2 26.9495 22.5484 17.4984
107 1 26.2738 23.7969 17.4487
108 2 29.1198 23.7077 17.5094
109 1 28.4442 24.9561 17.4596
110 2 31.2895 24.8677 17.5398
111 1 30.6143 26.1161 17.4898
112 2 33.4583 26.0298 17.5843
113 1 32.7838 27.2785 17.5352
114 2 35.6263 27.1958 17.6326
115 1 34.9527 28.445 17.5871
116 2 37.7939 28.3673 17.6693
117 1 37.1215 29.617 17.632
118 2 39.9619 29.5437 17.6785
119 1 39.2906 30.7941 17.6541
120 2 42.1306 30.722 17.6508
121 1 41.4602 31.9732 17.6418
122 2 44.2995 31.8982 17.5896
123 1 43.63 33.1502 17.595
124 2 46.4683 33.07 17.5094
125 1 45.7993 34.3227 17.5251
126 2 48.6372 34.2371 17.4273
127 1 6.75108 10.8554 17.4487
128 2 9.58366 10.765 17.5082
129 1 8.91358 12.0178 17.5249
130 2 11.7428 11.9307 17.5898
131 1 11.072 13.1835 17.5963
132 2 13.8991 13.0999 17.6551
133 1 13.2271 14.3525 17.6479
134 2 16.0548 14.2713 17.6901
135 1 15.3812 15.5229 17.6682
136 2 18.2129 15.4419 17.6903
137 1 17.5374 16.6922 17.6563
138 2 20.375 16.6097 17.6635
139 1 19.6977 17.8585 17.622
140 2 22.5408 17.7743 17.6249
141 1 21.8622 19.0219 17.5802
142 2 24.7092 18.9363 17.5898
143 1 24.0299 20.1831 17.5447
144 2 26.879 20.0965 17.5693
145 1 26.1993 21.3429 17.5249
146 2 29.0492 21.2558 17.569
147 1 28.3694 22.5021 17.5251
148 2 31.219 22.4153 17.5896
149 1 30.5395 23.6616 17.5462
150 2 33.3878 23.5765 17.6272
151 1 32.709 24.823 17.5844
152 2 35.5554 24.741 17.6718
153 1 34.8777 25.9882 17.6314
154 2 37.7218 25.9107 17.7081
155 1 37.0458 27.1589 17.6732
156 2 39.8877 27.0858 17.7186
157 1 39.2137 28.3351 17.6929
158 2 42.0539 28.2634 17.6914
159 1 41.3818 29.514 17.6773
160 2 44.2206 29.4394 17.6272
161 1 43.5501 30.6911 17.6246
162 2 46.388 30.611 17.5398
163 1 45.7185 31.8636 17.5462
164 2 48.5561 31.7779 17.4479
165 1 47.8872 33.0309 17.4596
166 2 50.7251 32.9411 17.3665
167 1 50.0563 34.1944 17.3805
168 2 52.8949 34.1019 17.3035
169 1 4.50549 7.23558 17.3178
170 2 7.3432 7.14188 17.365
171 1 6.67395 8.3949 17.3798
172 2 9.50968 8.30282 17.4452
173 1 8.84 9.55563 17.4581
174 2 11.6731 9.46638 17.5365
175 1 11.0027 10.7189 17.5447
176 2 13.8333 10.6338 17.6249
177 1 13.1617 11.886 17.6254
178 2 15.9915 11.8052 17.6923
179 1 15.318 13.0566 17.6833
180 2 18.1501 12.9786 17.7251
181 1 17.474 14.2287 17.7067
182 2 20.3115 14.1509 17.7214
183 1 19.6324 15.3992 17.6961
184 2 22.4762 15.3195 17.6923
185 1 21.7949 16.5662 17.6635
186 2 24.6437 16.4843 17.6551
187 1 23.961 17.7298 17.6254
188 2 26.813 17.646 17.6253
189 1 26.1296 18.8908 17.5963
190 2 28.983 18.8058 17.613
191 1 28.2994 20.0503 17.585
192 2 31.153 19.965 17.6221
193 1 30.4695 21.2095 17.595
194 2 33.3221 21.1252 17.6508
195 1 32.6391 22.3699 17.6246
196 2 35.4897 22.288 17.6914
197 1 34.8077 23.5334 17.6666
198 2 37.6553 23.4553 17.7298
199 1 36.9753 24.7018 17.7077
200 2 39.819 24.628 17.7477
201 1 39.1418 25.8761 17.7302
202 2 41.982 25.8043 17.7298
203 1 41.3076 27.0541 17.7183
204 2 44.1454 26.98 17.6718
205 1 43.4733 28.2313 17.6666
206 2 46.31 28.1517 17.5843
207 1 45.6396 29.404 17.5844
208 2 48.4762 29.3187 17.4863
209 1 47.8068 30.5716 17.4898
210 2 50.644 30.4818 17.3953
211 1 49.975 31.735 17.4005
212 2 52.8132 31.6425 17.3218
213 1 52.1444 32.8959 17.3275
214 2 54.9833 32.8019 17.269
215 1 54.3145 34.0554 17.2746
216 2 57.154 33.9605 17.236
217 1 2.25362 3.61767 17.2413
218 2 5.0931 3.52281 17.2685
219 1 4.42433 4.77621 17.2742
220 2 7.2631 4.68198 17.3202
221 1 6.59422 5.93524 17.3263
222 2 9.4318 5.84223 17.3922
223 1 8.76267 7.09524 17.3981
224 2 11.5985 7.0045 17.4812
225 1 10.9289 8.25715 17.4861
226 2 13.7627 8.17019 17.5773
227 1 13.0922 9.42232 17.5802
228 2 15.9248 9.34045 17.6635
229 1 15.2525 10.5918 17.6635
230 2 18.086 10.5148 17.7214
231 1 17.411 11.7651 17.7182
232 2 20.2484 11.6904 17.7407
233 1 19.57 12.939 17.7349
234 2 22.4131 12.8634 17.7251
235 1 21.7317 14.1103 17.7182
236 2 24.5802 14.0317 17.6901
237 1 23.8967 15.2771 17.6833
238 2 26.749 15.1955 17.6538
239 1 26.0644 16.44 17.6479
240 2 28.9189 16.3562 17.63
241 1 28.2338 17.6003 17.6253
242 2 31.0891 17.5155 17.6263
243 1 30.4039 18.7594 17.6229
244 2 33.2587 18.675 17.644
245 1 32.5737 19.919 17.6418
246 2 35.4268 19.8362 17.6785
247 1 34.7427 21.0807 17.6773
248 2 37.5926 21.0008 17.7186
249 1 36.91 22.2463 17.7183
250 2 39.7554 22.1703 17.7477
251 1 39.0755 23.4174 17.7478
252 2 41.9157 23.3441 17.7477
253 1 41.2391 24.5932 17.7478
254 2 44.0752 24.519 17.7081
255 1 43.4015 25.7699 17.7077
256 2 46.2359 25.6912 17.6326
257 1 45.5643 26.9433 17.6314
258 2 48.3989 26.8588 17.5371
259 1 47.7287 28.1115 17.5352
260 2 50.5645 28.0222 17.4408
261 1 49.895 29.2754 17.4384
262 2 52.7323 29.183 17.3578
263 1 52.0632 30.4364 17.3552
264 2 54.9016 30.3424 17.2947
265 1 54.2327 31.5958 17.292
266 2 57.0718 31.5011 17.2521
267 1 56.403 32.7546 17.2495
268 2 59.2426 32.6594 17.228
269 1 58.5739 33.9129 17.2255
270 2 20.9171 33.8176 17.2203
271 1 40.4967 5.13882e-11 17.2178
272 2 23.0882 34.9759 17.228
273 1 2.17121 1.15829 17.2255
274 2 5.0109 1.06332 17.2519
275 1 4.34226 2.31681 17.2492
276 2 7.1815 2.22239 17.2937
277 1 6.51286 3.47579 17.291
278 2 9.35133 3.38239 17.3554
279 1 8.68264 4.63561 17.3528
280 2 11.52 4.5441 17.436
281 1 10.8511 5.79699 17.434
282 2 13.6871 5.70878 17.5288
283 1 13.0176 6.96115 17.5284
284 2 15.8526 6.87787 17.6199
285 1 15.1819 8.1295 17.622
286 2 18.0172 8.05192 17.6903
287 1 17.3444 9.30259 17.6961
288 2 20.1818 9.22915 17.7251
289 1 19.5062 10.4786 17.7349
290 2 22.3476 10.4055 17.7214
291 1 21.6689 11.6535 17.7349
292 2 24.515 11.5774 17.6903
293 1 23.8338 12.8239 17.7067
294 2 26.6836 12.7437 17.6498
295 1 26.001 13.9892 17.6682
296 2 28.8533 13.9058 17.6162
297 1 28.17 15.1507 17.6361
298 2 31.0236 15.0656 17.6
299 1 30.34 16.3102 17.6211
300 2 33.1937 16.2247 17.6052
301 1 32.5101 17.4693 17.6276
302 2 35.3628 17.3846 17.6307
303 1 34.6797 18.6296 17.6541
304 2 37.5297 18.5468 17.6693
305 1 36.8476 19.7925 17.6929
306 2 39.6932 19.7126 17.7081
307 1 39.0131 20.9597 17.7302
308 2 41.8529 20.8828 17.7298
309 1 41.1756 22.1317 17.7478
310 2 44.0098 22.0557 17.7186
311 1 43.3352 23.3065 17.7302
312 2 46.1666 23.2282 17.6693
313 1 45.4941 24.4803 17.6732
314 2 48.3255 24.3972 17.5901
315 1 47.6544 25.6499 17.5871
316 2 50.4877 25.5619 17.4981
317 1 49.8176 26.8149 17.4904
318 2 52.653 26.7233 17.4105
319 1 51.9835 27.9765 17.4002
320 2 54.8208 27.8828 17.3381
321 1 54.1517 29.1362 17.327
322 2 56.9902 29.0416 17.2853
323 1 56.3212 30.295 17.2743
324 2 18.6638 30.2 17.2519
325 1 58.4917 31.4534 17.2412
326 2 20.8346 31.3582 17.2359
327 1 6.43068 1.01634 17.2739
328 2 9.26956 0.922871 17.3372
329 1 8.60107 2.17614 17.3256
330 2 11.4391 2.08441 17.4076
331 1 10.7706 3.33744 17.3968
332 2 13.6078 3.24869 17.4918
333 1 12.9391 4.50129 17.4838
334 2 15.7756 4.41713 17.5783
335 1 15.1062 5.66907 17.5761
336 2 17.9429 5.59064 17.6498
337 1 17.2722 6.84177 17.6563
338 2 20.11 6.76825 17.6901
339 1 19.4373 8.01854 17.7067
340 2 22.2774 7.94646 17.6923
341 1 21.6024 9.19586 17.7182
342 2 24.4453 9.12103 17.6635
343 1 23.7682 10.3694 17.6961
344 2 26.614 10.2898 17.6199
345 1 25.9355 11.5372 17.6563
346 2 28.7836 11.4535 17.5783
347 1 28.1042 12.7003 17.6166
348 2 30.9538 12.614 17.5507
349 1 30.274 13.8605 17.5901
350 2 33.1243 13.7731 17.5435
351 1 32.4444 15.0195 17.5838
352 2 35.2942 14.9323 17.5577
353 1 34.6146 16.1788 17.5991
354 2 37.4626 16.0927 17.5901
355 1 36.7836 17.3396 17.632
356 2 39.628 17.2553 17.6326
357 1 38.9502 18.5032 17.6732
358 2 41.7894 18.4214 17.6718
359 1 41.1134 19.6706 17.7077
360 2 43.9466 19.591 17.6914
361 1 43.2725 20.8419 17.7183
362 2 46.1014 20.7624 17.6785
363 1 45.4288 22.0147 17.6929
364 2 48.2565 21.9327 17.6307
365 1 47.5851 23.1857 17.632
366 2 50.4146 23.0995 17.5577
367 1 49.7439 24.3527 17.5483
368 2 52.5764 24.2626 17.4755
369 1 51.9064 25.5157 17.4593
370 2 54.7417 25.423 17.399
371 1 54.0722 26.6762 17.3795
372 2 16.4128 26.5821 17.3372
373 1 56.2403 27.8353 17.317
374 2 18.5823 27.7406 17.2937
375 1 10.6889 0.878 17.3783
376 2 13.5265 0.789192 17.4732
377 1 12.8582 2.04185 17.4554
378 2 15.6955 1.9574 17.5507
379 1 15.0269 3.20954 17.5399
380 2 17.8645 3.13057 17.6162
381 1 17.195 4.38208 17.6166
382 2 20.0335 4.30809 17.6538
383 1 19.3629 5.55903 17.6682
384 2 22.2023 5.48698 17.6551
385 1 21.5304 6.73747 17.6833
386 2 24.3709 6.66311 17.6249
387 1 23.6977 7.91313 17.6635
388 2 26.5398 7.83379 17.5773
389 1 25.8654 9.0832 17.622
390 2 28.7092 8.99897 17.5288
391 1 28.034 10.2478 17.5761
392 2 30.8794 10.1603 17.4918
393 1 30.2037 11.4089 17.5399
394 2 33.05 11.3197 17.4732
395 1 32.3742 12.5681 17.5217
396 2 35.2205 12.4786 17.4755
397 1 34.5448 13.727 17.5248
398 2 37.3901 13.6378 17.4981
399 1 36.7148 14.8865 17.5483
400 2 39.5576 14.7983 17.5371
401 1 38.883 16.0475 17.5871
402 2 41.7218 15.9609 17.5843
403 1 41.0482 17.2109 17.6314
404 2 43.8817 17.1265 17.6272
405 1 43.2091 18.3777 17.6666
406 2 46.0374 18.2952 17.6508
407 1 45.3657 19.5477 17.6773
408 2 48.1911 19.4654 17.644
409 1 47.5199 20.7187 17.6541
410 2 50.3456 20.6342 17.6052
411 1 49.6749 21.8877 17.5991
412 2 52.5034 21.7999 17.5435
413 1 51.8331 23.0532 17.5248
414 2 14.1685 22.9623 17.4732
415 1 53.9953 24.2153 17.447
416 2 16.334 24.1224 17.4076
417 1 14.9456 0.750245 17.5217
418 2 17.7837 0.671204 17.6
419 1 17.1148 1.92286 17.5901
420 2 19.9538 1.84855 17.63
421 1 19.2843 3.09989 17.6361
422 2 22.1237 3.02751 17.6253
423 1 21.4536 4.27873 17.6479
424 2 24.293 4.20425 17.5898
425 1 23.6223 5.45542 17.6254
426 2 26.462 5.37602 17.5365
427 1 25.7907 6.627 17.5802
428 2 28.6314 6.54235 17.4812
429 1 27.9594 7.79301 17.5284
430 2 30.8014 7.70454 17.436
431 1 30.1289 8.95493 17.4838
432 2 32.972 8.86435 17.4076
433 1 32.2993 10.1146 17.4554
434 2 35.1428 10.0232 17.399
435 1 34.4701 11.2734 17.447
436 2 37.3132 11.1819 17.4105
437 1 36.6407 12.4322 17.4593
438 2 39.4824 12.3411 17.4408
439 1 38.8103 13.5916 17.4904
440 2 41.6493 13.5014 17.4863
441 1 40.9777 14.7523 17.5352
442 2 43.8127 14.6637 17.5398
443 1 43.1415 15.9153 17.5844
444 2 45.9716 15.8288 17.5896
445 1 45.3009 17.0813 17.6246
446 2 48.1267 16.9968 17.6221
447 1 47.4562 18.2502 17.6418
448 2 50.28 18.1661 17.6263
449 1 49.6095 19.4199 17.6276
450 2 11.9378 19.3344 17.6
451 1 51.7639 20.588 17.5838
452 2 14.0958 20.4998 17.5507
453 1 19.2035 0.640884 17.6211
454 2 22.0431 0.568273 17.613
455 1 21.3737 1.81985 17.6253
456 2 24.2129 1.74503 17.5693
457 1 23.5435 2.99688 17.5963
458 2 26.3821 2.9172 17.5082
459 1 25.7125 4.16917 17.5447
460 2 28.5514 4.08421 17.4452
461 1 27.8814 5.33612 17.4861
462 2 30.7213 5.24706 17.3922
463 1 30.0508 6.49881 17.434
464 2 32.8918 6.40729 17.3554
465 1 32.2211 7.65893 17.3968
466 2 35.0627 7.56624 17.3372
467 1 34.3919 8.81784 17.3783
468 2 37.2336 8.72475 17.3381
469 1 36.5628 9.97639 17.3795
470 2 39.4038 9.88335 17.3578
471 1 38.7333 11.1351 17.4002
472 2 41.5727 11.0425 17.3953
473 1 40.9024 12.2943 17.4384
474 2 43.7392 12.2026 17.4479
475 1 43.0691 13.4547 17.4898
476 2 45.9021 13.3647 17.5094
477 1 45.2321 14.6172 17.5462
478 2 48.0607 14.5295 17.569
479 1 47.3907 15.7826 17.595
480 2 9.71894 15.6971 17.613
481 1 49.5453 16.9508 17.6229
482 2 11.8723 16.8664 17.63
483 1 23.4627 0.538006 17.585
484 2 26.3011 0.457998 17.4984
485 1 25.6322 1.71048 17.5249
486 2 28.4703 1.62522 17.4265
487 1 27.8013 2.87785 17.4581
488 2 30.6401 2.78846 17.365
489 1 29.9707 4.04107 17.3981
490 2 32.8104 3.94904 17.3202
491 1 32.1408 5.20159 17.3528
492 2 34.9813 5.10816 17.2937
493 1 34.3116 6.36068 17.3256
494 2 37.1524 6.26666 17.2853
495 1 36.4826 7.51918 17.317
496 2 39.3232 7.42502 17.2947
497 1 38.6536 8.67756 17.327
498 2 41.4933 8.58356 17.3218
499 1 40.8238 9.83612 17.3552
500 2 43.662 9.74261 17.3665
501 1 42.9925 10.9952 17.4005
502 2 45.8283 10.9027 17.4273
503 1 45.1587 12.1554 17.4596
504 2 7.49444 12.0648 17.4984
505 1 47.3213 13.3176 17.5251
506 2 9.65314 13.2297 17.5693
507 1 27.7201 0.418917 17.4487
508 2 30.5584 0.329285 17.3563
509 1 29.8895 1.58236 17.3798
510 2 32.7286 1.49006 17.303
511 1 32.0595 2.74314 17.3263
512 2 34.8993 2.64935 17.2685
513 1 34.2302 3.90241 17.291
514 2 37.0704 3.80791 17.2519
515 1 36.4012 5.06096 17.2739
516 2 39.2415 4.96619 17.2521
517 1 38.5723 6.21925 17.2743
518 2 41.4123 6.1245 17.269
519 1 40.7432 7.37754 17.292
520 2 43.5824 7.28307 17.3035
521 1 42.9132 8.53607 17.3275
522 2 5.25434 8.44222 17.3563
523 1 45.0818 9.69513 17.3805
524 2 7.42067 9.60253 17.4265
525 1 31.9778 0.284077 17.3178
526 2 34.8171 0.190118 17.2604
527 1 34.1482 1.44348 17.2742
528 2 36.9881 1.34874 17.2359
529 1 36.3192 2.6021 17.2492
530 2 39.1593 2.50703 17.228
531 1 38.4903 3.76039 17.2412
532 2 41.3304 3.66526 17.236
533 1 40.6615 4.9186 17.2495
534 2 3.00446 4.82364 17.2604
535 1 42.8323 6.07693 17.2746
536 2 5.17451 5.98239 17.303
537 1 36.2369 0.142859 17.2413
538 2 39.0768 0.0476668 17.2203
539 1 38.408 1.30118 17.2255
540 2 0.751258 1.20588 17.2203
541 1 40.5792 2.45939 17.2255
542 2 2.92236 2.3642 17.2359
543 3 18.242 31.3108 21.0588
544 4 21.082 31.4059 21.064
545 3 20.3309 32.6118 21.0745
546 4 23.1707 32.707 21.0641
547 3 22.4196 33.9129 21.0745
548 4 25.2593 34.0079 21.0481
549 3 16.2343 27.552 20.983
550 4 19.0749 27.6462 21.0053
551 3 18.324 28.8519 21.0257
552 4 21.164 28.9467 21.031
553 3 20.4131 30.1526 21.0505
554 4 23.2528 30.2475 21.0396
555 3 22.502 31.4535 21.0587
556 4 25.3415 31.5484 21.0315
557 3 24.5906 32.7544 21.0508
558 4 27.4299 32.8488 21.0063
559 3 26.679 34.0548 21.0261
560 4 29.5179 34.1483 20.9628
561 3 14.2218 23.7978 20.853
562 4 17.0649 23.8893 20.8895
563 3 16.3145 25.0948 20.9205
564 4 19.1555 25.1878 20.9422
565 3 18.4052 26.3936 20.973
566 4 21.245 26.4876 20.9782
567 3 20.4948 27.6936 21.008
568 4 23.334 27.7881 20.9965
569 3 22.5839 28.9942 21.0254
570 4 25.4229 29.0888 20.997
571 3 24.6727 30.295 21.0258
572 4 27.5115 30.3892 20.9798
573 3 26.7612 31.5954 21.009
574 4 29.5997 31.6888 20.9446
575 3 28.8494 32.895 20.9744
576 4 31.6875 32.9868 20.8924
577 3 30.9372 34.1932 20.9217
578 4 33.7749 34.282 20.8268
579 3 12.1961 20.0517 20.7162
580 4 15.0458 20.1389 20.7423
581 3 14.2964 21.3442 20.7752
582 4 17.1417 21.4334 20.8019
583 3 16.3924 22.639 20.8407
584 4 19.2341 22.7301 20.8592
585 3 18.4849 23.9361 20.8998
586 4 21.3243 24.0287 20.9047
587 3 20.5754 25.2351 20.9448
588 4 23.4137 25.3286 20.9335
589 3 22.6649 26.5351 20.9725
590 4 25.5027 26.629 20.9437
591 3 24.7538 27.8356 20.9822
592 4 27.5916 27.9293 20.935
593 3 26.8426 29.1359 20.9737
594 4 29.6802 29.229 20.9078
595 3 28.931 30.4356 20.9472
596 4 31.7683 30.5271 20.864
597 3 31.019 31.7337 20.9032
598 4 33.8561 31.8225 20.8082
599 3 33.1066 33.0293 20.8446
600 4 35.9439 33.1138 20.7493
601 3 35.1939 34.3209 20.7783
602 4 38.0321 34.4 20.7
603 3 10.1555 16.3118 20.6771
604 4 13.0103 16.3962 20.656
605 3 12.2618 17.6018 20.6724
606 4 15.1144 17.6866 20.6693
607 3 14.3662 18.8924 20.7009
608 4 17.2142 18.9785 20.7099
609 3 16.4664 20.1847 20.7517
610 4 19.3093 20.2729 20.7629
611 3 18.562 21.4795 20.8096
612 4 21.4009 21.5698 20.8137
613 3 20.654 22.7769 20.8616
614 4 23.4908 22.8686 20.8521
615 3 22.7442 24.076 20.8995
616 4 25.58 24.1685 20.8727
617 3 24.8334 25.376 20.9195
618 4 27.669 25.4687 20.8735
619 3 26.9223 26.6763 20.9202
620 4 29.758 26.7684 20.8548
621 3 29.011 27.9759 20.9019
622 4 31.8469 28.0667 20.8188
623 3 31.0994 29.2742 20.866
624 4 33.9354 29.3624 20.7712
625 3 33.1874 30.5699 20.8162
626 4 36.024 30.6541 20.7217
627 3 35.2752 31.8616 20.7601
628 4 38.1128 31.9406 20.6838
629 3 37.3632 33.1483 20.7099
630 4 40.2022 33.2226 20.67
631 3 39.4518 34.4303 20.6789
632 4 42.2915 34.5029 20.687
633 3 8.12109 12.5691 20.7749
634 4 10.9707 12.6558 20.7104
635 3 10.2211 13.8616 20.705
636 4 13.0738 13.946 20.6492
637 3 12.3254 15.1522 20.6582
638 4 15.1785 15.235 20.6215
639 3 14.4313 16.4416 20.6459
640 4 17.2813 16.5244 20.6307
641 3 16.5352 17.7316 20.668
642 4 19.3797 17.8158 20.6674
643 3 18.6346 19.0237 20.7129
644 4 21.4735 19.1103 20.7157
645 3 20.7293 20.3188 20.7648
646 4 23.5643 20.4075 20.7602
647 3 22.8207 21.6165 20.8102
648 4 25.6537 21.7065 20.7906
649 3 24.9104 22.9158 20.8404
650 4 27.7428 23.0064 20.8016
651 3 26.9994 24.2158 20.8513
652 4 29.832 24.3062 20.7918
653 3 29.0884 25.5156 20.8419
654 4 31.9215 25.6048 20.7635
655 3 31.1772 26.814 20.8139
656 4 34.0111 26.901 20.7227
657 3 33.266 28.11 20.7716
658 4 36.101 28.1933 20.6801
659 3 35.3546 29.4021 20.7239
660 4 38.1913 29.4805 20.6502
661 3 37.4434 30.6891 20.6834
662 4 40.2819 30.7631 20.6462
663 3 39.5327 31.9713 20.6639
664 4 42.3721 32.0437 20.6747
665 3 41.6221 33.2513 20.6747
666 4 44.4613 33.3261 20.7307
667 3 43.7111 34.5332 20.715
668 4 46.5495 34.6132 20.8016
669 3 6.10371 8.81833 20.9195
670 4 8.94654 8.90935 20.8521
671 3 8.19585 10.1151 20.8404
672 4 11.0412 10.2035 20.7602
673 3 10.2912 11.4095 20.7538
674 4 13.1395 11.4947 20.6728
675 3 12.3907 12.7012 20.6754
676 4 15.2413 12.7832 20.6086
677 3 14.4943 13.9905 20.6227
678 4 17.3443 14.0703 20.5814
679 3 16.5993 15.2787 20.6071
680 4 19.4449 15.3585 20.5919
681 3 18.7019 16.568 20.6268
682 4 21.541 16.6498 20.6282
683 3 20.7998 17.8603 20.6686
684 4 23.6333 17.9447 20.6728
685 3 22.8932 19.1559 20.7156
686 4 25.7233 19.2424 20.7104
687 3 24.9837 20.454 20.7538
688 4 27.8124 20.5417 20.731
689 3 27.073 21.7535 20.7749
690 4 29.9015 21.8415 20.7307
691 3 29.1619 23.0534 20.7751
692 4 31.9912 23.1405 20.7102
693 3 31.2511 24.3522 20.7553
694 4 34.0817 24.4374 20.6751
695 3 33.3405 25.6489 20.7198
696 4 36.1731 25.7307 20.6365
697 3 35.4303 26.9417 20.678
698 4 38.2655 27.0193 20.6097
699 3 37.5205 28.2294 20.6437
700 4 40.3584 28.3029 20.6099
701 3 39.6112 29.5122 20.6318
702 4 42.4507 29.5842 20.6449
703 3 41.7019 30.7924 20.6521
704 4 44.5414 30.8669 20.7102
705 3 43.7918 32.0743 20.7037
706 4 46.6305 32.154 20.7918
707 3 45.8805 33.3607 20.7751
708 4 48.7187 33.446 20.8735
709 3 47.9685 34.6523 20.8513
710 4 50.8067 34.7419 20.9437
711 3 4.09501 5.06111 21.0254
712 4 6.93527 5.15488 20.9782
713 3 6.1842 6.36079 20.9725
714 4 9.02505 6.45306 20.9047
715 3 8.27421 7.65903 20.8995
716 4 11.1163 7.74887 20.8137
717 3 10.3659 8.95508 20.8102
718 4 13.2099 9.04141 20.7157
719 3 12.4606 10.2481 20.7156
720 4 15.307 10.3302 20.6282
721 3 14.5594 11.5378 20.6334
722 4 17.4069 11.6159 20.5702
723 3 16.6617 12.8248 20.5817
724 4 19.5071 12.9009 20.5523
725 3 18.7648 14.1115 20.5698
726 4 21.6045 14.1884 20.5702
727 3 20.865 15.4006 20.5923
728 4 23.6983 15.4802 20.6086
729 3 22.9607 16.6935 20.6334
730 4 25.7891 16.776 20.6492
731 3 25.0526 17.9899 20.6754
732 4 27.8784 18.0744 20.6779
733 3 27.1423 19.2886 20.705
734 4 29.9673 19.374 20.687
735 3 29.2313 20.5883 20.715
736 4 32.0567 20.6735 20.6747
737 3 31.3203 21.8877 20.7037
738 4 34.1474 21.9713 20.6449
739 3 33.4101 23.1852 20.6746
740 4 36.2399 23.266 20.6077
741 3 35.5009 24.4793 20.6365
742 4 38.3343 24.5564 20.5786
743 3 37.5928 25.7686 20.6039
744 4 40.4302 25.842 20.5749
745 3 39.6857 27.0526 20.5933
746 4 42.5257 27.1247 20.6077
747 3 41.7787 28.3337 20.6167
748 4 44.6193 28.4081 20.6751
749 3 43.8707 29.6158 20.6746
750 4 46.7104 29.6952 20.7635
751 3 45.9608 30.902 20.7553
752 4 48.7998 30.987 20.8548
753 3 48.0497 32.1933 20.8419
754 4 50.8884 32.2827 20.935
755 3 50.1379 33.4888 20.9202
756 4 52.9769 33.5811 20.997
757 3 52.2261 34.7871 20.9822
758 4 55.0654 34.8811 21.0396
759 3 60.7451 35.0712 21.0822
760 4 2.83988 0.0952448 21.072
761 3 2.08863 1.30115 21.0745
762 4 4.92845 1.39606 21.0479
763 3 4.17725 2.602 21.0505
764 4 7.01701 2.69623 21.0053
765 3 6.26591 3.90221 21.008
766 4 9.10568 3.9952 20.9422
767 3 8.35479 5.20131 20.9448
768 4 11.1948 5.29214 20.8592
769 3 10.4443 6.49849 20.8616
770 4 13.2852 6.58588 20.7629
771 3 12.5354 7.79271 20.7648
772 4 15.3779 7.87536 20.6674
773 3 14.6293 9.083 20.6686
774 4 17.4734 9.16049 20.5919
775 3 16.7269 10.3694 20.5923
776 4 19.5707 10.4432 20.5523
777 3 18.8272 11.6537 20.5522
778 4 21.6673 11.7271 20.5523
779 3 20.9272 12.9395 20.5522
780 4 23.7615 13.0154 20.5814
781 3 23.0241 14.2293 20.5817
782 4 25.853 14.3087 20.6215
783 3 25.1173 15.5235 20.6227
784 4 27.9427 15.6058 20.656
785 3 27.2078 16.821 20.6582
786 4 30.0316 16.905 20.6737
787 3 29.297 18.1204 20.6771
788 4 32.1207 18.2048 20.67
789 3 31.3859 19.4201 20.6747
790 4 34.2109 19.5036 20.6462
791 3 33.4754 20.7187 20.6521
792 4 36.3032 20.7999 20.6099
793 3 35.5664 22.0146 20.6167
794 4 38.3985 22.0925 20.5749
795 3 37.6594 23.3061 20.5818
796 4 40.4967 23.3808 20.5593
797 3 39.7545 24.5926 20.5651
798 4 42.596 24.6657 20.5786
799 3 41.8507 25.8753 20.5818
800 4 44.6936 25.9502 20.6365
801 3 43.946 27.158 20.6365
802 4 46.7881 27.2374 20.7227
803 3 46.039 28.4442 20.7198
804 4 48.8797 28.5288 20.8188
805 3 48.1297 29.7351 20.8139
806 4 50.9696 29.8241 20.9078
807 3 50.2191 31.0301 20.9019
808 4 53.0588 31.1221 20.9798
809 3 52.3079 32.328 20.9737
810 4 55.1477 32.4218 21.0315
811 3 54.3966 33.6277 21.0258
812 4 57.2364 33.7224 21.0641
813 3 56.4853 34.9283 21.0587
814 4 59.3251 35.0235 21.0797
815 3 4.25977 0.142632 21.0588
816 4 7.09926 0.237044 21.0147
817 3 6.34822 1.44306 21.0257
818 4 9.18743 1.5364 20.9619
819 3 8.43657 2.74256 20.973
820 4 11.2755 2.83396 20.8895
821 3 10.525 4.04037 20.8998
822 4 13.364 4.1285 20.8019
823 3 12.6139 5.33536 20.8096
824 4 15.4537 5.41867 20.7099
825 3 14.7044 6.62621 20.7129
826 4 17.5455 6.70386 20.6307
827 3 16.7975 7.91231 20.6268
828 4 19.6393 7.98541 20.5814
829 3 18.8934 9.19504 20.5698
830 4 21.7336 9.26688 20.5702
831 3 20.9907 10.4779 20.5522
832 4 23.8268 10.5522 20.5919
833 3 23.0869 11.7647 20.5698
834 4 25.9182 11.843 20.6307
835 3 25.1804 13.0565 20.6071
836 4 28.0082 13.1384 20.6693
837 3 27.2716 14.3525 20.6459
838 4 30.0972 14.437 20.6948
839 3 29.3611 15.6512 20.6724
840 4 32.1861 15.7368 20.7
841 3 31.45 16.9511 20.6789
842 4 34.2756 17.0364 20.6838
843 3 33.5391 18.2506 20.6639
844 4 36.3669 18.3343 20.6502
845 3 35.6295 19.5483 20.6318
846 4 38.4613 19.6293 20.6097
847 3 37.7223 20.8425 20.5933
848 4 40.5598 20.9203 20.5786
849 3 39.8184 22.1321 20.5651
850 4 42.6615 22.2078 20.5749
851 3 41.9172 23.4177 20.5651
852 4 44.7633 23.4938 20.6097
853 3 44.0166 24.7018 20.6039
854 4 46.8624 24.7814 20.6801
855 3 46.1137 25.988 20.678
856 4 48.9576 26.0722 20.7712
857 3 48.2077 27.2782 20.7716
858 4 51.0498 27.3666 20.864
859 3 50.2992 28.5724 20.866
860 4 53.1402 28.6639 20.9446
861 3 52.3892 29.8696 20.9472
862 4 55.2297 29.963 21.0063
863 3 54.4785 31.1688 21.009
864 4 57.3188 31.2633 21.0481
865 3 56.5675 32.4691 21.0508
866 4 18.9109 32.5642 21.072
867 3 58.6564 33.77 21.0745
868 4 20.9996 33.8653 21.0797
869 3 8.51884 0.283292 20.983
870 4 11.3573 0.37497 20.901
871 3 10.6067 1.58137 20.9205
872 4 13.4449 1.66995 20.8245
873 3 12.6946 2.87674 20.8407
874 4 15.533 2.96064 20.7423
875 3 14.7831 4.16799 20.7517
876 4 17.6225 4.24617 20.6693
877 3 16.8731 5.45415 20.668
878 4 19.7136 5.52746 20.6215
879 3 18.9654 6.73605 20.6071
880 4 21.8055 6.80777 20.6086
881 3 21.0592 8.01703 20.5817
882 4 23.897 8.09117 20.6282
883 3 23.1531 9.30124 20.5923
884 4 25.9875 9.37998 20.6674
885 3 25.2457 10.5909 20.6268
886 4 28.0771 10.674 20.7099
887 3 27.3367 11.8855 20.668
888 4 30.1662 11.9717 20.7423
889 3 29.4265 13.1835 20.7009
890 4 32.2551 13.2713 20.7565
891 3 31.5156 14.4832 20.7162
892 4 34.3441 14.5714 20.7493
893 3 33.6045 15.7833 20.7099
894 4 36.4343 15.8706 20.7217
895 3 35.6942 17.0824 20.6834
896 4 38.5268 17.1677 20.6801
897 3 37.7858 18.379 20.6437
898 4 40.6234 18.4615 20.6365
899 3 39.8808 19.672 20.6039
900 4 42.7246 19.7517 20.6077
901 3 41.98 20.9609 20.5818
902 4 44.8286 21.0395 20.6099
903 3 44.0822 22.2472 20.5933
904 4 46.932 22.3275 20.6502
905 3 46.1838 23.5339 20.6437
906 4 49.0319 23.6177 20.7217
907 3 48.2824 24.8233 20.7239
908 4 51.1277 24.9109 20.8082
909 3 50.3773 26.1163 20.8162
910 4 53.2204 26.2068 20.8924
911 3 52.4694 27.4122 20.9032
912 4 55.3111 27.5049 20.9628
913 3 54.5599 28.7105 20.9744
914 4 16.904 28.8045 21.0147
915 3 56.6496 30.0102 21.0261
916 4 18.9932 30.105 21.0479
917 3 12.7764 0.417526 20.853
918 4 15.6141 0.501837 20.7565
919 3 14.8639 1.709 20.7752
920 4 17.7025 1.78773 20.6948
921 3 16.9523 2.99534 20.7009
922 4 19.792 3.06918 20.656
923 3 19.0422 4.27707 20.6459
924 4 21.8822 4.3492 20.6492
925 3 21.1334 5.55718 20.6227
926 4 23.9723 5.63177 20.6728
927 3 23.225 6.83988 20.6334
928 4 26.0616 6.91944 20.7157
929 3 25.3159 8.12788 20.6686
930 4 28.1506 8.2124 20.7629
931 3 27.4061 9.42125 20.7129
932 4 30.2393 9.50933 20.8019
933 3 29.4956 10.7185 20.7517
934 4 32.3281 10.8086 20.8245
935 3 31.5847 12.018 20.7752
936 4 34.4169 12.1089 20.8268
937 3 33.6736 13.3184 20.7783
938 4 36.5063 13.409 20.8082
939 3 35.7628 14.6184 20.7601
940 4 38.5971 14.7077 20.7712
941 3 37.8532 15.9169 20.7239
942 4 40.6909 16.004 20.7227
943 3 39.9461 17.2127 20.678
944 4 42.7892 17.2969 20.6751
945 3 42.0433 18.505 20.6365
946 4 44.892 18.5869 20.6449
947 3 44.1451 19.7941 20.6167
948 4 46.9974 19.8757 20.6462
949 3 46.2494 21.0819 20.6318
950 4 49.1017 21.1654 20.6838
951 3 48.3526 22.3709 20.6834
952 4 51.2022 22.4572 20.7493
953 3 50.4521 23.6623 20.7601
954 4 53.2983 23.7515 20.8268
955 3 52.5477 24.9566 20.8446
956 4 14.8945 25.048 20.901
957 3 54.6403 26.2533 20.9217
958 4 16.9852 26.3464 20.9619
959 3 17.0334 0.536272 20.7162
960 4 19.8727 0.610516 20.6737
961 3 19.1222 1.8181 20.6724
962 4 21.9621 1.89062 20.6779
963 3 21.2119 3.098 20.6582
964 4 24.0511 3.17296 20.7104
965 3 23.3017 4.38006 20.6754
966 4 26.1396 4.46015 20.7602
967 3 25.3912 5.66715 20.7156
968 4 28.2279 5.75252 20.8137
969 3 27.4803 6.95964 20.7648
970 4 30.3162 7.04894 20.8592
971 3 29.5692 8.25629 20.8096
972 4 32.4047 8.34792 20.8895
973 3 31.6581 9.55548 20.8407
974 4 34.4933 9.6482 20.901
975 3 33.7469 10.8559 20.853
976 4 36.5823 10.9488 20.8924
977 3 35.8359 12.1565 20.8446
978 4 38.672 12.2486 20.864
979 3 37.9254 13.4562 20.8162
980 4 40.7635 13.5469 20.8188
981 3 40.0164 14.7542 20.7716
982 4 42.8583 14.8424 20.7635
983 3 42.1106 16.0493 20.7198
984 4 44.9576 16.1349 20.7102
985 3 44.2094 17.3414 20.6746
986 4 47.0613 17.4252 20.6747
987 3 46.3128 18.6312 20.6521
988 4 49.1673 18.7149 20.67
989 3 48.4183 19.9204 20.6639
990 4 51.2719 20.0056 20.7
991 3 50.5224 21.2107 20.7099
992 4 12.8759 21.298 20.7565
993 3 52.6225 22.503 20.7783
994 4 14.9721 22.5926 20.8245
995 3 21.2926 0.639056 20.6771
996 4 24.1318 0.714095 20.731
997 3 23.3816 1.92094 20.705
998 4 26.2199 2.00114 20.7906
999 3 25.4702 3.20763 20.7538
1000 4 28.3077 3.29326 20.8521
1001 3 27.5584 4.49962 20.8102
1002 4 30.3957 4.5894 20.9047
1003 3 29.6467 5.79581 20.8616
1004 4 32.4839 5.88815 20.9422