LAMMPS data file

1084 atoms
4 atom types
0.0 40.496710977761026 xlo xhi
0.0 35.07118047673858 ylo yhi
0.0 34.99999999999999 zlo zhi
20.248355489444396 0.0 0.0 xy xz yz

Masses

1 12.011
2 12.011
3 12.011
4 12.011

Atoms

1 1 20.1736383104791 32.61231542486392 17.499999999999993
2 2 23.01289110681728 32.52603945821775 17.499999999999993
3 1 22.34043649934482 33.77704097575192 17.499999999999993
4 2 25.179689295682994 33.69076500910575 17.499999999999993
5 1 24.507234688210538 34.94176652663992 17.499999999999993
6 2 27.346487484548714 34.85549055999375 17.499999999999993
7 1 17.932122942648085 28.988724822101258 17.499999999999993
8 2 20.771375738986265 28.902448855455095 17.499999999999993
9 1 20.098921131513805 30.153450372989255 17.499999999999993
10 2 22.938173927851985 30.067174406343092 17.499999999999993
11 1 22.265719320379528 31.318175923877263 17.499999999999993
12 2 25.104972116717704 31.23189995723109 17.499999999999993
13 1 24.432517509245248 32.48290147476526 17.499999999999993
14 2 27.271770305583424 32.39662550811909 17.499999999999993
15 1 26.599315698110967 33.64762702565326 17.499999999999993
16 2 29.438568494449136 33.56135105900707 17.499999999999993
17 1 28.766113886976687 34.81235257654125 17.499999999999993
18 2 31.605366683314855 34.726076609895074 17.499999999999993
19 1 15.690607574817076 25.365134219338604 17.499999999999993
20 2 18.52986037115525 25.278858252692434 17.499999999999993
21 1 17.857405763682795 26.5298597702266 17.499999999999993
22 2 20.696658560020975 26.443583803580434 17.499999999999993
23 1 20.02420395254852 27.6945853211146 17.499999999999993
24 2 22.863456748886694 27.60830935446843 17.499999999999993
25 1 22.191002141414238 28.8593108720026 17.499999999999993
26 2 25.03025493775241 28.77303490535643 17.499999999999993
27 1 24.357800330279957 30.024036422890596 17.499999999999993
28 2 27.197053126618126 29.937760456244423 17.499999999999993
29 1 26.52459851914567 31.188761973778593 17.499999999999993
30 2 29.363851315483846 31.10248600713242 17.499999999999993
31 1 28.69139670801139 32.35348752466659 17.499999999999993
32 2 31.53064950434956 32.26721155802041 17.499999999999993
33 1 30.85819489687711 33.51821307555459 17.499999999999993
34 2 33.69744769321528 33.431937108908414 17.499999999999993
35 1 33.02499308574283 34.682938626442585 17.499999999999993
36 2 35.86424588208101 34.596662659796415 17.499999999999993
37 1 13.449092206986066 21.74154361657595 17.499999999999993
38 2 16.288345003324242 21.655267649929776 17.499999999999993
39 1 15.615890395851785 22.906269167463947 17.499999999999993
40 2 18.455143192189958 22.819993200817773 17.499999999999993
41 1 17.782688584717505 24.070994718351944 17.499999999999993
42 2 20.621941381055677 23.98471875170577 17.499999999999993
43 1 19.949486773583224 25.23572026923994 17.499999999999993
44 2 22.788739569921397 25.14944430259377 17.499999999999993
45 1 22.116284962448944 26.40044582012794 17.499999999999993
46 2 24.955537758787116 26.314169853481772 17.499999999999993
47 1 24.28308315131466 27.565171371015936 17.499999999999993
48 2 27.122335947652832 27.47889540436976 17.499999999999993
49 1 26.449881340180376 28.729896921903936 17.499999999999993
50 2 29.28913413651855 28.643620955257763 17.499999999999993
51 1 28.6166795290461 29.894622472791934 17.499999999999993
52 2 31.455932325384275 29.80834650614576 17.499999999999993
53 1 30.78347771791182 31.05934802367993 17.499999999999993
54 2 33.622730514249994 30.97307205703376 17.499999999999993
55 1 32.950275906777534 32.224073574567925 17.499999999999993
56 2 35.789528703115714 32.137797607921755 17.499999999999993
57 1 35.117074095643254 33.38879912545592 17.499999999999993
58 2 37.95632689198143 33.30252315880975 17.499999999999993
59 1 37.28387228450897 34.55352467634392 17.499999999999993
60 2 40.12312508084715 34.467248709697756 17.499999999999993
61 1 11.207576839155056 18.11795301381329 17.499999999999993
62 2 14.046829635493236 18.031677047167122 17.499999999999993
63 1 13.374375028020774 19.282678564701285 17.499999999999993
64 2 16.21362782435895 19.19640259805512 17.499999999999993
65 1 15.541173216886493 20.447404115589283 17.499999999999993
66 2 18.38042601322467 20.361128148943116 17.499999999999993
67 1 17.70797140575221 21.61212966647728 17.499999999999993
68 2 20.54722420209039 21.52585369983111 17.499999999999993
69 1 19.874769594617927 22.776855217365274 17.499999999999993
70 2 22.714022390956107 22.690579250719107 17.499999999999993
71 1 22.04156778348365 23.941580768253274 17.499999999999993
72 2 24.880820579821822 23.855304801607105 17.499999999999993
73 1 24.20836597234937 25.10630631914128 17.499999999999993
74 2 27.047618768687542 25.02003035249511 17.499999999999993
75 1 26.37516416121509 26.271031870029276 17.499999999999993
76 2 29.21441695755326 26.184755903383106 17.499999999999993
77 1 28.54196235008081 27.435757420917273 17.499999999999993
78 2 31.38121514641898 27.3494814542711 17.499999999999993
79 1 30.708760538946528 28.60048297180527 17.499999999999993
80 2 33.5480133352847 28.514207005159097 17.499999999999993
81 1 32.87555872781224 29.76520852269326 17.499999999999993
82 2 35.71481152415042 29.678932556047094 17.499999999999993
83 1 35.04235691667796 30.929934073581258 17.499999999999993
84 2 37.88160971301614 30.84365810693508 17.499999999999993
85 1 37.20915510554369 32.09465962446925 17.499999999999993
86 2 40.04840790188186 32.008383657823096 17.499999999999993
87 1 39.3759532944094 33.25938517535725 17.499999999999993
88 2 42.21520609074757 33.17310920871109 17.499999999999993
89 1 41.54275148327512 34.42411072624525 17.499999999999993
90 2 44.3820042796133 34.33783475959909 17.499999999999993
91 1 8.966061471324043 14.494362411050629 17.499999999999993
92 2 11.805314267662222 14.408086444404464 17.499999999999993
93 1 11.132859660189764 15.659087961938631 17.499999999999993
94 2 13.972112456527942 15.572811995292462 17.499999999999993
95 1 13.299657849055484 16.82381351282663 17.499999999999993
96 2 16.13891064539366 16.73753754618046 17.499999999999993
97 1 15.466456037921203 17.988539063714626 17.499999999999993
98 2 18.305708834259377 17.902263097068456 17.499999999999993
99 1 17.63325422678692 19.153264614602623 17.499999999999993
100 2 20.472507023125097 19.066988647956453 17.499999999999993
101 1 19.80005241565264 20.31799016549062 17.499999999999993
102 2 22.639305211990813 20.231714198844447 17.499999999999993
103 1 21.966850604518356 21.482715716378618 17.499999999999993
104 2 24.80610340085653 21.396439749732448 17.499999999999993
105 1 24.133648793384076 22.647441267266615 17.499999999999993
106 2 26.972901589722255 22.561165300620445 17.499999999999993
107 1 26.300446982249795 23.812166818154616 17.499999999999993
108 2 29.139699778587968 23.725890851508442 17.499999999999993
109 1 28.467245171115515 24.97689236904261 17.499999999999993
110 2 31.30649796745369 24.89061640239644 17.499999999999993
111 1 30.634043359981234 26.141617919930606 17.499999999999993
112 2 33.47329615631941 26.055341953284437 17.499999999999993
113 1 32.800841548846954 27.306343470818604 17.499999999999993
114 2 35.640094345185126 27.220067504172427 17.499999999999993
115 1 34.96763973771267 28.4710690217066 17.499999999999993
116 2 37.806892534050846 28.384793055060435 17.499999999999993
117 1 37.134437926578386 29.635794572594598 17.499999999999993
118 2 39.97369072291656 29.549518605948432 17.499999999999993
119 1 39.30123611544411 30.800520123482595 17.499999999999993
120 2 42.140488911782285 30.71424415683643 17.499999999999993
121 1 41.468034304309825 31.965245674370593 17.499999999999993
122 2 44.307287100648004 31.878969707724426 17.499999999999993
123 1 43.63483249317555 33.1299712252586 17.499999999999993
124 2 46.474085289513724 33.04369525861243 17.499999999999993
125 1 45.801630682041264 34.294696776146594 17.499999999999993
126 2 48.640883478379436 34.20842080950042 17.499999999999993
127 1 6.724546103493033 10.870771808287975 17.499999999999993
128 2 9.563798899831209 10.784495841641805 17.499999999999993
129 1 8.891344292358752 12.035497359175972 17.499999999999993
130 2 11.730597088696928 11.949221392529804 17.499999999999993
131 1 11.058142481224472 13.20022291006397 17.499999999999993
132 2 13.897395277562648 13.113946943417801 17.499999999999993
133 1 13.224940670090188 14.364948460951968 17.499999999999993
134 2 16.064193466428364 14.278672494305798 17.499999999999993
135 1 15.39173885895591 15.529674011839965 17.499999999999993
136 2 18.230991655294083 15.443398045193796 17.499999999999993
137 1 17.558537047821627 16.69439956272796 17.499999999999993
138 2 20.397789844159803 16.60812359608179 17.499999999999993
139 1 19.725335236687346 17.85912511361596 17.499999999999993
140 2 22.56458803302552 17.772849146969794 17.499999999999993
141 1 21.892133425553066 19.023850664503957 17.499999999999993
142 2 24.731386221891242 18.937574697857787 17.499999999999993
143 1 24.058931614418782 20.188576215391954 17.499999999999993
144 2 26.898184410756954 20.102300248745784 17.499999999999993
145 1 26.2257298032845 21.35330176627995 17.499999999999993
146 2 29.06498259962268 21.267025799633785 17.499999999999993
147 1 28.39252799215022 22.51802731716795 17.499999999999993
148 2 31.2317807884884 22.431751350521782 17.499999999999993
149 1 30.55932618101594 23.682752868055946 17.499999999999993
150 2 33.39857897735412 23.596476901409776 17.499999999999993
151 1 32.72612436988166 24.847478418943943 17.499999999999993
152 2 35.56537716621984 24.761202452297777 17.499999999999993
153 1 34.89292255874737 26.012203969831937 17.499999999999993
154 2 37.73217535508555 25.925928003185774 17.499999999999993
155 1 37.059720747613085 27.176929520719934 17.499999999999993
156 2 39.89897354395127 27.09065355407377 17.499999999999993
157 1 39.22651893647881 28.341655071607924 17.499999999999993
158 2 42.06577173281699 28.255379104961765 17.499999999999993
159 1 41.39331712534453 29.50638062249592 17.499999999999993
160 2 44.23256992168271 29.420104655849762 17.499999999999993
161 1 43.56011531421025 30.671106173383926 17.499999999999993
162 2 46.39936811054844 30.58483020673776 17.499999999999993
163 1 45.72691350307596 31.83583172427193 17.499999999999993
164 2 48.566166299414135 31.749555757625764 17.499999999999993
165 1 47.893711691941675 33.00055727515993 17.499999999999993
166 2 50.732964488279855 32.914281308513765 17.499999999999993
167 1 50.0605098808074 34.16528282604793 17.499999999999993
168 2 52.89976267714559 34.07900685940176 17.499999999999993
169 1 4.483030735662021 7.247181205525314 17.499999999999993
170 2 7.322283532000201 7.160905238879148 17.499999999999993
171 1 6.649828924527742 8.411906756413314 17.499999999999993
172 2 9.489081720865919 8.325630789767143 17.499999999999993
173 1 8.81662711339346 9.576632307301312 17.499999999999993
174 2 11.655879909731638 9.490356340655143 17.499999999999993
175 1 10.983425302259178 10.741357858189309 17.499999999999993
176 2 13.822678098597358 10.65508189154314 17.499999999999993
177 1 13.150223491124898 11.906083409077308 17.499999999999993
178 2 15.989476287463075 11.819807442431138 17.499999999999993
179 1 15.317021679990617 13.070808959965303 17.499999999999993
180 2 18.156274476328793 12.984532993319132 17.499999999999993
181 1 17.483819868856337 14.2355345108533 17.499999999999993
182 2 20.32307266519451 14.14925854420713 17.499999999999993
183 1 19.650618057722056 15.400260061741298 17.499999999999993
184 2 22.48987085406023 15.313984095095128 17.499999999999993
185 1 21.817416246587776 16.5649856126293 17.499999999999993
186 2 24.65666904292595 16.47870964598313 17.499999999999993
187 1 23.984214435453495 17.729711163517297 17.499999999999993
188 2 26.823467231791668 17.643435196871124 17.499999999999993
189 1 26.151012624319215 18.89443671440529 17.499999999999993
190 2 28.990265420657387 18.808160747759118 17.499999999999993
191 1 28.317810813184927 20.05916226529329 17.499999999999993
192 2 31.157063609523107 19.972886298647115 17.499999999999993
193 1 30.484609002050654 21.223887816181286 17.499999999999993
194 2 33.32386179838882 21.13761184953512 17.499999999999993
195 1 32.651407190916366 22.388613367069283 17.499999999999993
196 2 35.49065998725454 22.302337400423117 17.499999999999993
197 1 34.818205379782086 23.55333891795728 17.499999999999993
198 2 37.65745817612026 23.467062951311114 17.499999999999993
199 1 36.9850035686478 24.71806446884527 17.499999999999993
200 2 39.82425636498598 24.631788502199104 17.499999999999993
201 1 39.151801757513525 25.882790019733267 17.499999999999993
202 2 41.9910545538517 25.7965140530871 17.499999999999993
203 1 41.318599946379244 27.04751557062127 17.499999999999993
204 2 44.15785274271742 26.961239603975102 17.499999999999993
205 1 43.485398135244964 28.212241121509273 17.499999999999993
206 2 46.324650931583136 28.125965154863103 17.499999999999993
207 1 45.65219632411068 29.37696667239727 17.499999999999993
208 2 48.49144912044886 29.290690705751107 17.499999999999993
209 1 47.8189945129764 30.54169222328527 17.499999999999993
210 2 50.658247309314575 30.455416256639097 17.499999999999993
211 1 49.985792701842115 31.706417774173268 17.499999999999993
212 2 52.825045498180295 31.6201418075271 17.499999999999993
213 1 52.15259089070784 32.87114332506126 17.499999999999993
214 2 54.991843687046014 32.78486735841509 17.499999999999993
215 1 54.319389079573554 34.035868875949255 17.499999999999993
216 2 57.15864187591174 33.94959290930309 17.499999999999993
217 1 2.2415153678310107 3.623590602762657 17.499999999999993
218 2 5.080768164169188 3.5373146361164896 17.499999999999993
219 1 4.40831355669673 4.788316153650656 17.499999999999993
220 2 7.247566353034907 4.702040187004487 17.499999999999993
221 1 6.575111745562449 5.953041704538654 17.499999999999993
222 2 9.414364541900627 5.866765737892484 17.499999999999993
223 1 8.741909934428168 7.11776725542665 17.499999999999993
224 2 11.581162730766346 7.031491288780483 17.499999999999993
225 1 10.908708123293888 8.28249280631465 17.499999999999993
226 2 13.747960919632066 8.196216839668482 17.499999999999993
227 1 13.075506312159607 9.447218357202646 17.499999999999993
228 2 15.91475910849778 9.360942390556474 17.499999999999993
229 1 15.242304501025327 10.611943908090643 17.499999999999993
230 2 18.081557297363503 10.525667941444473 17.499999999999993
231 1 17.409102689891043 11.77666945897864 17.499999999999993
232 2 20.248355486229222 11.69039349233247 17.499999999999993
233 1 19.575900878756762 12.941395009866634 17.499999999999993
234 2 22.415153675094935 12.855119043220471 17.499999999999993
235 1 21.742699067622482 14.106120560754636 17.499999999999993
236 2 24.581951863960654 14.019844594108465 17.499999999999993
237 1 23.9094972564882 15.270846111642635 17.499999999999993
238 2 26.748750052826374 15.18457014499646 17.499999999999993
239 1 26.07629544535392 16.43557166253063 17.499999999999993
240 2 28.915548241692097 16.349295695884464 17.499999999999993
241 1 28.243093634219637 17.600297213418628 17.499999999999993
242 2 31.082346430557816 17.51402124677246 17.499999999999993
243 1 30.409891823085356 18.765022764306625 17.499999999999993
244 2 33.24914461942353 18.67874679766046 17.499999999999993
245 1 32.576690011951065 19.92974831519461 17.499999999999993
246 2 35.415942808289245 19.843472348548456 17.499999999999993
247 1 34.7434882008168 21.094473866082623 17.499999999999993
248 2 37.58274099715497 21.008197899436457 17.499999999999993
249 1 36.91028638968251 22.259199416970617 17.499999999999993
250 2 39.749539186020684 22.172923450324447 17.499999999999993
251 1 39.07708457854823 23.423924967858614 17.499999999999993
252 2 41.91633737488641 23.337649001212444 17.499999999999993
253 1 41.24388276741394 24.588650518746615 17.499999999999993
254 2 44.08313556375212 24.502374552100445 17.499999999999993
255 1 43.41068095627966 25.75337606963461 17.499999999999993
256 2 46.249933752617835 25.667100102988442 17.499999999999993
257 1 45.57747914514538 26.91810162052261 17.499999999999993
258 2 48.41673194148356 26.831825653876443 17.499999999999993
259 1 47.7442773340111 28.082827171410607 17.499999999999993
260 2 50.583530130349274 27.99655120476444 17.499999999999993
261 1 49.91107552287683 29.247552722298604 17.499999999999993
262 2 52.750328319215 29.161276755652437 17.499999999999993
263 1 52.07787371174255 30.4122782731866 17.499999999999993
264 2 54.91712650808072 30.326002306540435 17.499999999999993
265 1 54.24467190060827 31.5770038240746 17.499999999999993
266 2 57.08392469694644 31.490727857428432 17.499999999999993
267 1 56.41147008947398 32.741729374962596 17.499999999999993
268 2 59.25072288581215 32.655453408316426 17.499999999999993
269 1 58.5782682783397 33.906454925850596 17.499999999999993
270 2 20.92081009691685 33.82017895920442 17.499999999999993
271 1 0.0 0.0 17.499999999999993
272 2 23.087608285782576 34.98490451009241 17.499999999999993
273 1 2.1667981888657186 1.164725550887997 17.499999999999993
274 2 5.006050985203896 1.0784495842418296 17.499999999999993
275 1 4.333596377731437 2.329451101775994 17.499999999999993
276 2 7.172849174069616 2.2431751351298272 17.499999999999993
277 1 6.500394566597157 3.4941766526639926 17.499999999999993
278 2 9.339647362935334 3.4079006860178245 17.499999999999993
279 1 8.667192755462874 4.658902203551988 17.499999999999993
280 2 11.506445551801052 4.572626236905822 17.499999999999993
281 1 10.833990944328594 5.823627754439988 17.499999999999993
282 2 13.67324374066677 5.737351787793817 17.499999999999993
283 1 13.000789133194314 6.988353305327985 17.499999999999993
284 2 15.84004192953249 6.9020773386818135 17.499999999999993
285 1 15.16758732206003 8.153078856215982 17.499999999999993
286 2 18.00684011839821 8.066802889569813 17.499999999999993
287 1 17.33438551092575 9.317804407103976 17.499999999999993
288 2 20.173638307263925 9.231528440457812 17.499999999999993
289 1 19.501183699791472 10.482529957991977 17.499999999999993
290 2 22.340436496129644 10.396253991345809 17.499999999999993
291 1 21.667981888657188 11.647255508879976 17.499999999999993
292 2 24.50723468499536 11.560979542233802 17.499999999999993
293 1 23.834780077522908 12.811981059767973 17.499999999999993
294 2 26.674032873861083 12.725705093121798 17.499999999999993
295 1 26.001578266388627 13.97670661065597 17.499999999999993
296 2 28.840831062726796 13.890430644009802 17.499999999999993
297 1 28.168376455254347 15.141432161543971 17.499999999999993
298 2 31.007629251592515 15.0551561948978 17.499999999999993
299 1 30.33517464412006 16.306157712431965 17.499999999999993
300 2 33.17442744045823 16.2198817457858 17.499999999999993
301 1 32.501972832985786 17.470883263319962 17.499999999999993
302 2 35.34122562932396 17.3846072966738 17.499999999999993
303 1 34.6687710218515 18.635608814207952 17.499999999999993
304 2 37.50802381818967 18.54933284756179 17.499999999999993
305 1 36.83556921071722 19.800334365095956 17.499999999999993
306 2 39.6748220070554 19.714058398449787 17.499999999999993
307 1 39.002367399582944 20.965059915983954 17.499999999999993
308 2 41.84162019592111 20.878783949337784 17.499999999999993
309 1 41.169165588448664 22.12978546687195 17.499999999999993
310 2 44.008418384786836 22.043509500225785 17.499999999999993
311 1 43.335963777314376 23.29451101775995 17.499999999999993
312 2 46.175216573652555 23.208235051113782 17.499999999999993
313 1 45.502761966180095 24.45923656864795 17.499999999999993
314 2 48.34201476251827 24.372960602001783 17.499999999999993
315 1 47.669560155045815 25.623962119535946 17.499999999999993
316 2 50.508812951383995 25.537686152889776 17.499999999999993
317 1 49.83635834391154 26.788687670423943 17.499999999999993
318 2 52.67561114024972 26.702411703777777 17.499999999999993
319 1 52.003156532777254 27.95341322131194 17.499999999999993
320 2 54.84240932911543 27.867137254665774 17.499999999999993
321 1 54.169954721642966 29.118138772199938 17.499999999999993
322 2 57.00920751798114 29.031862805553768 17.499999999999993
323 1 56.33675291050869 30.282864323087942 17.499999999999993
324 2 18.679294729085843 30.19658835644175 17.499999999999993
325 1 58.50355109937442 31.44758987397593 17.499999999999993
326 2 20.846092917951573 31.361313907329755 17.499999999999993
327 1 6.425677387631864 1.0353116007893322 17.499999999999993
328 2 9.26493018397004 0.9490356341431637 17.499999999999993
329 1 8.592475576497582 2.2000371516773303 17.499999999999993
330 2 11.43172837283576 2.1137611850311613 17.499999999999993
331 1 10.759273765363302 3.364762702565327 17.499999999999993
332 2 13.598526561701478 3.2784867359191563 17.499999999999993
333 1 12.926071954229021 4.529488253453324 17.499999999999993
334 2 15.7653247505672 4.443212286807156 17.499999999999993
335 1 15.09287014309474 5.694213804341321 17.499999999999993
336 2 17.932122939432915 5.607937837695155 17.499999999999993
337 1 17.25966833196046 6.85893935522932 17.499999999999993
338 2 20.09892112829863 6.772663388583151 17.499999999999993
339 1 19.426466520826175 8.023664906117316 17.499999999999993
340 2 22.265719317164354 7.9373889394711465 17.499999999999993
341 1 21.593264709691894 9.188390457005315 17.499999999999993
342 2 24.432517506030074 9.102114490359144 17.499999999999993
343 1 23.760062898557614 10.353116007893313 17.499999999999993
344 2 26.599315694895793 10.266840041247143 17.499999999999993
345 1 25.926861087423333 11.51784155878131 17.499999999999993
346 2 28.76611388376151 11.43156559213514 17.499999999999993
347 1 28.093659276289053 12.682567109669304 17.499999999999993
348 2 30.932912072627232 12.596291143023135 17.499999999999993
349 1 30.260457465154772 13.847292660557303 17.499999999999993
350 2 33.09971026149295 13.761016693911138 17.499999999999993
351 1 32.42725565402049 15.0120182114453 17.499999999999993
352 2 35.26650845035867 14.925742244799133 17.499999999999993
353 1 34.594053842886204 16.17674376233329 17.499999999999993
354 2 37.433306639224384 16.09046779568713 17.499999999999993
355 1 36.76085203175193 17.341469313221292 17.499999999999993
356 2 39.60010482809011 17.25519334657513 17.499999999999993
357 1 38.92765022061764 18.506194864109297 17.499999999999993
358 2 41.76690301695581 18.419918897463123 17.499999999999993
359 1 41.09444840948336 19.670920414997294 17.499999999999993
360 2 43.93370120582154 19.584644448351117 17.499999999999993
361 1 43.26124659834908 20.83564596588529 17.499999999999993
362 2 46.100499394687255 20.749369999239125 17.499999999999993
363 1 45.42804478721481 22.000371516773292 17.499999999999993
364 2 48.267297583552974 21.91409555012712 17.499999999999993
365 1 47.59484297608052 23.165097067661286 17.499999999999993
366 2 50.434095772418694 23.07882110101512 17.499999999999993
367 1 49.76164116494624 24.329822618549283 17.499999999999993
368 2 52.60089396128441 24.243546651903113 17.499999999999993
369 1 51.92843935381196 25.49454816943728 17.499999999999993
370 2 54.76769215015014 25.40827220279111 17.499999999999993
371 1 54.09523754267769 26.659273720325274 17.499999999999993
372 2 16.437779361254837 26.5729977536791 17.499999999999993
373 1 56.26203573154339 27.82399927121327 17.499999999999993
374 2 18.604577550120542 27.737723304567094 17.499999999999993
375 1 10.684556586398013 0.9058976506906679 17.499999999999993
376 2 13.52380938273619 0.8196216840445 17.499999999999993
377 1 12.851354775263728 2.0706232015786643 17.499999999999993
378 2 15.690607571601902 1.984347234932496 17.499999999999993
379 1 15.018152964129449 3.2353487524666615 17.499999999999993
380 2 17.857405760467625 3.1490727858204957 17.499999999999993
381 1 17.184951152995165 4.4000743033546605 17.499999999999993
382 2 20.02420394933334 4.313798336708492 17.499999999999993
383 1 19.351749341860884 5.564799854242656 17.499999999999993
384 2 22.191002138199064 5.47852388759649 17.499999999999993
385 1 21.518547530726604 6.729525405130654 17.499999999999993
386 2 24.357800327064773 6.643249438484488 17.499999999999993
387 1 23.685345719592323 7.894250956018651 17.499999999999993
388 2 26.524598515930492 7.807974989372482 17.499999999999993
389 1 25.852143908458043 9.058976506906648 17.499999999999993
390 2 28.691396704796208 8.972700540260478 17.499999999999993
391 1 28.018942097323762 10.223702057794645 17.499999999999993
392 2 30.858194893661935 10.13742609114848 17.499999999999993
393 1 30.18574028618948 11.388427608682642 17.499999999999993
394 2 33.02499308252765 11.302151642036474 17.499999999999993
395 1 32.3525384750552 12.553153159570643 17.499999999999993
396 2 35.19179127139338 12.466877192924475 17.499999999999993
397 1 34.51933666392092 13.71787871045864 17.499999999999993
398 2 37.35858946025909 13.63160274381247 17.499999999999993
399 1 36.68613485278664 14.882604261346636 17.499999999999993
400 2 39.52538764912481 14.796328294700466 17.499999999999993
401 1 38.85293304165235 16.047329812234633 17.499999999999993
402 2 41.69218583799053 15.961053845588463 17.499999999999993
403 1 41.019731230518076 17.21205536312263 17.499999999999993
404 2 43.85898402685625 17.125779396476464 17.499999999999993
405 1 43.18652941938379 18.37678091401063 17.499999999999993
406 2 46.02578221572197 18.29050494736446 17.499999999999993
407 1 45.353327608249515 19.541506464898625 17.499999999999993
408 2 48.19258040458769 19.455230498252455 17.499999999999993
409 1 47.52012579711523 20.706232015786625 17.499999999999993
410 2 50.35937859345341 20.619956049140452 17.499999999999993
411 1 49.68692398598095 21.87095756667462 17.499999999999993
412 2 52.526176782319126 21.784681600028442 17.499999999999993
413 1 51.853722174846666 23.03568311756262 17.499999999999993
414 2 14.196263993423825 22.949407150916436 17.499999999999993
415 1 54.020520363712386 24.200408668450606 17.499999999999993
416 2 16.36306218228954 24.114132701804433 17.499999999999993
417 1 14.943435785164155 0.7764837005920018 17.499999999999993
418 2 17.78268858150233 0.6902077339458331 17.499999999999993
419 1 17.11023397402987 1.9412092514799948 17.499999999999993
420 2 19.949486770368054 1.8549332848338271 17.499999999999993
421 1 19.277032162895594 3.105934802367995 17.499999999999993
422 2 22.11628495923377 3.019658835721824 17.499999999999993
423 1 21.44383035176131 4.270660353255995 17.499999999999993
424 2 24.283083148099486 4.184384386609829 17.499999999999993
425 1 23.610628540627022 5.435385904143987 17.499999999999993
426 2 26.449881336965205 5.349109937497823 17.499999999999993
427 1 25.777426729492745 6.600111455031985 17.499999999999993
428 2 28.616679525830925 6.513835488385819 17.499999999999993
429 1 27.944224918358472 7.7648370059199845 17.499999999999993
430 2 30.78347771469664 7.678561039273816 17.499999999999993
431 1 30.111023107224185 8.929562556807978 17.499999999999993
432 2 32.950275903562364 8.843286590161814 17.499999999999993
433 1 32.27782129608991 10.094288107695979 17.499999999999993
434 2 35.117074092428076 10.008012141049807 17.499999999999993
435 1 34.444619484955616 11.259013658583982 17.499999999999993
436 2 37.28387228129379 11.172737691937812 17.499999999999993
437 1 36.611417673821336 12.42373920947198 17.499999999999993
438 2 39.450670470159515 12.337463242825805 17.499999999999993
439 1 38.77821586268706 13.588464760359976 17.499999999999993
440 2 41.617468659025235 13.502188793713813 17.499999999999993
441 1 40.945014051552775 14.753190311247964 17.499999999999993
442 2 43.784266847890954 14.666914344601803 17.499999999999993
443 1 43.1118122404185 15.91791586213597 17.499999999999993
444 2 45.951065036756674 15.831639895489802 17.499999999999993
445 1 45.27861042928422 17.082641413023968 17.499999999999993
446 2 48.117863225622386 16.996365446377798 17.499999999999993
447 1 47.44540861814994 18.24736696391196 17.499999999999993
448 2 50.28466141448812 18.16109099726579 17.499999999999993
449 1 49.61220680701566 19.412092514799962 17.499999999999993
450 2 11.95474862559281 19.325816548153785 17.499999999999993
451 1 51.77900499588138 20.57681806568796 17.499999999999993
452 2 14.121546814458526 20.490542099041782 17.499999999999993
453 1 19.202314983930297 0.6470697504933371 17.499999999999993
454 2 22.041567780268476 0.5607937838471723 17.499999999999993
455 1 21.369113172796027 1.8117953013813357 17.499999999999993
456 2 24.20836596913419 1.7255193347351676 17.499999999999993
457 1 23.53591136166174 2.9765208522693296 17.499999999999993
458 2 26.37516415799991 2.890244885623163 17.499999999999993
459 1 25.702709550527455 4.141246403157329 17.499999999999993
460 2 28.54196234686563 4.05497043651116 17.499999999999993
461 1 27.869507739393175 5.305971954045323 17.499999999999993
462 2 30.708760535731354 5.219695987399156 17.499999999999993
463 1 30.036305928258898 6.470697504933323 17.499999999999993
464 2 32.87555872459708 6.384421538287155 17.499999999999993
465 1 32.20310411712462 7.635423055821321 17.499999999999993
466 2 35.04235691346279 7.549147089175152 17.499999999999993
467 1 34.36990230599033 8.800148606709321 17.499999999999993
468 2 37.20915510232851 8.713872640063151 17.499999999999993
469 1 36.536700494856056 9.964874157597318 17.499999999999993
470 2 39.37595329119423 9.878598190951143 17.499999999999993
471 1 38.70349868372177 11.129599708485312 17.499999999999993
472 2 41.54275148005995 11.043323741839146 17.499999999999993
473 1 40.87029687258749 12.294325259373313 17.499999999999993
474 2 43.70954966892567 12.208049292727148 17.499999999999993
475 1 43.03709506145321 13.459050810261308 17.499999999999993
476 2 45.87634785779139 13.372774843615138 17.499999999999993
477 1 45.20389325031892 14.623776361149297 17.499999999999993
478 2 48.0431460466571 14.537500394503134 17.499999999999993
479 1 47.37069143918465 15.788501912037303 17.499999999999993
480 2 9.713233257761798 15.702225945391126 17.499999999999993
481 1 49.53748962805036 16.95322746292529 17.499999999999993
482 2 11.880031446627523 16.866951496279118 17.499999999999993