ITEM: TIMESTEP
0
ITEM: NUMBER OF ATOMS
676
ITEM: BOX BOUNDS xy xz yz pp pp pp
0.0000000000000000e+00 4.8828000000837150e+01 1.6276000000253092e+01
0.0000000000000000e+00 2.8190858943991795e+01 0.0000000000000000e+00
0.0000000000000000e+00 1.0000000000000003e+02 0.0000000000000000e+00
ITEM: ATOMS id type x y z
91 1 4.62277 7.33963 50
92 2 7.512 7.22843 50
93 1 6.83785 8.5073 50
94 2 9.72708 8.39609 50
127 1 2.31138 3.66982 50
128 2 5.20062 3.55861 50
129 1 4.52646 4.83748 50
130 2 7.41569 4.72628 50
131 1 6.74154 6.00515 50
132 2 9.63077 5.89395 50
133 1 8.95662 7.17282 50
169 1 0 0 50
171 1 2.21508 1.16767 50
172 2 5.10431 1.05646 50
173 1 4.43015 2.33534 50
174 2 7.31938 2.22413 50
175 1 6.64523 3.50301 50
176 2 9.53446 3.3918 50
177 1 8.86031 4.67067 50
213 1 6.54892 1.00086 50
214 2 9.43815 0.889652 50
215 1 8.764 2.16853 50
318 2 5.39323 8.5629 50
330 2 3.08185 4.89309 50
332 2 5.29692 6.06076 50
336 2 0.770462 1.22327 50
338 2 2.98554 2.39094 50
399 3 6.16369 9.00773 53.3
400 4 9.05292 9.11894 53.3
429 3 4.14123 5.1711 53.3
430 4 7.03046 5.28231 53.3
431 3 6.26 6.50558 53.3
432 4 9.14923 6.61679 53.3
433 3 8.37877 7.84006 53.3
465 3 0 0 53.3
466 4 2.88923 0.111207 53.3
467 3 2.11877 1.33448 53.3
468 4 5.008 1.44569 53.3
469 3 4.23754 2.66896 53.3
470 4 7.12677 2.78016 53.3
471 3 6.35631 4.00344 53.3
472 4 9.24554 4.11464 53.3
473 3 8.47508 5.33791 53.3
509 3 4.33385 0.16681 53.3
510 4 7.22308 0.278016 53.3
511 3 6.45262 1.50129 53.3
512 4 9.34185 1.61249 53.3
513 3 8.57138 2.83577 53.3
551 3 8.66769 0.33362 53.3
668 4 4.81538 6.44998 53.3
670 4 6.93415 7.78446 53.3
674 4 2.79292 2.61335 53.3
676 4 4.91169 3.94783 53.3
134 2 11.8458 7.06162 50
135 1 11.1717 8.34049 50
136 2 14.0609 8.22928 50
178 2 11.7495 4.55947 50
179 1 11.0754 5.83834 50
180 2 13.9646 5.72714 50
181 1 13.2905 7.00601 50
182 2 16.1797 6.89481 50
183 1 15.5055 8.17368 50
184 2 18.3948 8.06247 50
185 1 17.7206 9.34135 50
216 2 11.6532 2.05732 50
217 1 10.9791 3.3362 50
218 2 13.8683 3.22499 50
219 1 13.1942 4.50387 50
220 2 16.0834 4.39266 50
221 1 15.4092 5.67153 50
222 2 18.2985 5.56033 50
223 1 17.6243 6.8392 50
249 1 10.8828 0.834049 50
250 2 13.772 0.722843 50
251 1 13.0978 2.00172 50
252 2 15.9871 1.89051 50
253 1 15.3129 3.16939 50
254 2 18.2022 3.05818 50
255 1 17.528 4.33706 50
279 1 15.2166 0.667239 50
280 2 18.1058 0.556033 50
281 1 17.4317 1.83491 50
434 4 11.268 7.95127 53.3
435 3 10.4975 9.17454 53.3
436 4 13.3868 9.28575 53.3
474 4 11.3643 5.44912 53.3
475 3 10.5938 6.67239 53.3
476 4 13.4831 6.7836 53.3
477 3 12.7126 8.00687 53.3
478 4 15.6018 8.11808 53.3
479 3 14.8314 9.34135 53.3
514 4 11.4606 2.94697 53.3
515 3 10.6902 4.17025 53.3
516 4 13.5794 4.28145 53.3
517 3 12.8089 5.50472 53.3
518 4 15.6982 5.61593 53.3
519 3 14.9277 6.8392 53.3
520 4 17.8169 6.95041 53.3
521 3 17.0465 8.17368 53.3
552 4 11.5569 0.444826 53.3
553 3 10.7865 1.6681 53.3
554 4 13.6757 1.7793 53.3
555 3 12.9052 3.00258 53.3
556 4 15.7945 3.11378 53.3
557 3 15.024 4.33706 53.3
558 4 17.9132 4.44826 53.3
559 3 17.1428 5.67153 53.3
561 3 19.2615 7.00601 53.3
587 3 13.0015 0.500429 53.3
588 4 15.8908 0.611636 53.3
589 3 15.1203 1.83491 53.3
590 4 18.0095 1.94611 53.3
591 3 17.2391 3.16939 53.3
593 3 19.3578 4.50387 53.3
617 3 17.3354 0.667239 53.3
619 3 19.4542 2.00172 53.3
186 2 20.6098 9.23014 50
224 2 20.5135 6.728 50
225 1 19.8394 8.00687 50
226 2 22.7286 7.89566 50
227 1 22.0545 9.17454 50
228 2 24.9437 9.06333 50
256 2 20.4172 4.22585 50
257 1 19.7431 5.50472 50
258 2 22.6323 5.39352 50
259 1 21.9582 6.67239 50
260 2 24.8474 6.56119 50
261 1 24.1732 7.84006 50
262 2 27.0625 7.72885 50
263 1 26.3883 9.00773 50
264 2 29.2775 8.89652 50
282 2 20.3209 1.7237 50
283 1 19.6468 3.00258 50
284 2 22.536 2.89137 50
285 1 21.8618 4.17025 50
286 2 24.7511 4.05904 50
287 1 24.0769 5.33791 50
288 2 26.9662 5.22671 50
289 1 26.292 6.50558 50
290 2 29.1812 6.39438 50
291 1 28.5071 7.67325 50
303 1 19.5505 0.500429 50
304 2 22.4397 0.389223 50
305 1 21.7655 1.6681 50
306 2 24.6548 1.55689 50
307 1 23.9806 2.83577 50
308 2 26.8698 2.72456 50
309 1 26.1957 4.00344 50
310 2 29.0849 3.89223 50
311 1 28.4108 5.1711 50
321 1 23.8843 0.33362 50
322 2 26.7735 0.222413 50
323 1 26.0994 1.50129 50
324 2 28.9886 1.39008 50
325 1 28.3145 2.66896 50
333 1 28.2182 0.16681 50
522 4 19.9357 8.28489 53.3
560 4 20.032 5.78274 53.3
562 4 22.1508 7.11722 53.3
563 3 21.3803 8.34049 53.3
564 4 24.2695 8.4517 53.3
592 4 20.1283 3.28059 53.3
594 4 22.2471 4.61507 53.3
595 3 21.4766 5.83834 53.3
596 4 24.3658 5.94955 53.3
597 3 23.5954 7.17282 53.3
598 4 26.4846 7.28403 53.3
599 3 25.7142 8.5073 53.3
600 4 28.6034 8.61851 53.3
618 4 20.2246 0.778446 53.3
620 4 22.3434 2.11292 53.3
621 3 21.5729 3.3362 53.3
622 4 24.4622 3.4474 53.3
623 3 23.6917 4.67067 53.3
624 4 26.5809 4.78188 53.3
625 3 25.8105 6.00515 53.3
626 4 28.6997 6.11636 53.3
627 3 27.9292 7.33963 53.3
641 3 21.6692 0.834049 53.3
642 4 24.5585 0.945256 53.3
643 3 23.788 2.16853 53.3
644 4 26.6772 2.27973 53.3
645 3 25.9068 3.50301 53.3
646 4 28.796 3.61421 53.3
647 3 28.0255 4.83748 53.3
659 3 26.0031 1.00086 53.3
660 4 28.8923 1.11207 53.3
661 3 28.1218 2.33534 53.3
292 2 31.3963 7.56205 50
293 1 30.7222 8.84092 50
294 2 33.6114 8.72971 50
312 2 31.3 5.0599 50
313 1 30.6258 6.33877 50
314 2 33.5151 6.22757 50
315 1 32.8409 7.50644 50
316 2 35.7302 7.39524 50
317 1 35.056 8.67411 50
326 2 31.2037 2.55775 50
327 1 30.5295 3.83663 50
328 2 33.4188 3.72542 50
329 1 32.7446 5.00429 50
331 1 34.9597 6.17196 50
334 2 31.1074 0.0556033 50
335 1 30.4332 1.33448 50
337 1 32.6483 2.50215 50
628 4 30.8185 7.45084 53.3
629 3 30.048 8.67411 53.3
630 4 32.9372 8.78532 53.3
648 4 30.9148 4.94869 53.3
649 3 30.1443 6.17196 53.3
650 4 33.0335 6.28317 53.3
651 3 32.2631 7.50644 53.3
652 4 35.1523 7.61765 53.3
653 3 34.3818 8.84092 53.3
654 4 37.2711 8.95213 53.3
662 4 31.0111 2.44654 53.3
663 3 30.2406 3.66982 53.3
664 4 33.1298 3.78102 53.3
665 3 32.3594 5.00429 53.3
666 4 35.2486 5.1155 53.3
667 3 34.4782 6.33877 53.3
669 3 36.5969 7.67325 53.3
671 3 30.3369 1.16767 53.3
672 4 33.2262 1.27888 53.3
673 3 32.4557 2.50215 53.3
675 3 34.5745 3.83663 53.3
37 1 9.24554 14.6793 50
61 1 6.93415 11.0094 50
63 1 9.14923 12.1771 50
95 1 9.05292 9.67497 50
300 2 7.70462 12.2327 50
320 2 7.60831 9.73057 50
375 3 8.18615 12.8444 53.3
401 3 8.28246 10.3422 53.3
638 4 8.86031 14.1232 53.3
656 4 6.83785 10.2866 53.3
658 4 8.95662 11.6211 53.3
19 1 11.5569 18.3491 50
20 2 14.4462 18.2379 50
38 2 12.1348 14.5681 50
39 1 11.4606 15.8469 50
40 2 14.3498 15.7357 50
41 1 13.6757 17.0146 50
42 2 16.5649 16.9034 50
43 1 15.8908 18.1823 50
44 2 18.78 18.0711 50
62 2 9.82338 10.8982 50
64 2 12.0385 12.0659 50
65 1 11.3643 13.3448 50
66 2 14.2535 13.2336 50
67 1 13.5794 14.5125 50
68 2 16.4686 14.4012 50
69 1 15.7945 15.6801 50
70 2 18.6837 15.5689 50
71 1 18.0095 16.8478 50
96 2 11.9422 9.56376 50
97 1 11.268 10.8426 50
98 2 14.1572 10.7314 50
99 1 13.4831 12.0103 50
100 2 16.3723 11.8991 50
101 1 15.6982 13.178 50
102 2 18.5874 13.0668 50
103 1 17.9132 14.3456 50
137 1 13.3868 9.50816 50
138 2 16.276 9.39695 50
139 1 15.6018 10.6758 50
140 2 18.4911 10.5646 50
141 1 17.8169 11.8435 50
276 2 10.016 15.9025 50
278 2 12.2311 17.0702 50
302 2 9.91969 13.4004 50
357 3 10.2086 16.681 53.3
358 4 13.0978 16.7922 53.3
359 3 12.3274 18.0155 53.3
360 4 15.2166 18.1267 53.3
376 4 11.0754 12.9556 53.3
377 3 10.3049 14.1788 53.3
378 4 13.1942 14.29 53.3
379 3 12.4237 15.5133 53.3
380 4 15.3129 15.6245 53.3
381 3 14.5425 16.8478 53.3
382 4 17.4317 16.959 53.3
383 3 16.6612 18.1823 53.3
402 4 11.1717 10.4534 53.3
403 3 10.4012 11.6767 53.3
404 4 13.2905 11.7879 53.3
405 3 12.52 13.0112 53.3
406 4 15.4092 13.1224 53.3
407 3 14.6388 14.3456 53.3
408 4 17.528 14.4569 53.3
409 3 16.7575 15.6801 53.3
411 3 18.8763 17.0146 53.3
437 3 12.6163 10.509 53.3
438 4 15.5055 10.6202 53.3
439 3 14.7351 11.8435 53.3
440 4 17.6243 11.9547 53.3
441 3 16.8538 13.178 53.3
443 3 18.9726 14.5125 53.3
480 4 17.7206 9.45256 53.3
481 3 16.9502 10.6758 53.3
483 3 19.0689 12.0103 53.3
523 3 19.1652 9.50816 53.3
614 4 10.8828 17.9599 53.3
640 4 10.9791 15.4577 53.3
72 2 20.8988 16.7366 50
73 1 20.2246 18.0155 50
74 2 23.1138 17.9043 50
104 2 20.8025 14.2344 50
105 1 20.1283 15.5133 50
106 2 23.0175 15.4021 50
107 1 22.3434 16.681 50
108 2 25.2326 16.5698 50
109 1 24.5585 17.8487 50
110 2 27.4477 17.7374 50
142 2 20.7062 11.7323 50
143 1 20.032 13.0112 50
144 2 22.9212 12.9 50
145 1 22.2471 14.1788 50
146 2 25.1363 14.0676 50
147 1 24.4622 15.3465 50
148 2 27.3514 15.2353 50
149 1 26.6772 16.5142 50
151 1 28.8923 17.6818 50
187 1 19.9357 10.509 50
188 2 22.8249 10.3978 50
189 1 22.1508 11.6767 50
190 2 25.04 11.5655 50
191 1 24.3658 12.8444 50
192 2 27.2551 12.7331 50
193 1 26.5809 14.012 50
195 1 28.796 15.1797 50
229 1 24.2695 10.3422 50
230 2 27.1588 10.231 50
231 1 26.4846 11.5099 50
233 1 28.6997 12.6775 50
265 1 28.6034 10.1754 50
384 4 19.5505 18.2935 53.3
410 4 19.6468 15.7913 53.3
412 4 21.7655 17.1258 53.3
413 3 20.9951 18.3491 53.3
414 4 23.8843 18.4603 53.3
442 4 19.7431 13.2892 53.3
444 4 21.8618 14.6237 53.3
445 3 21.0914 15.8469 53.3
446 4 23.9806 15.9581 53.3
447 3 23.2102 17.1814 53.3
448 4 26.0994 17.2926 53.3
449 3 25.3289 18.5159 53.3
450 4 28.2182 18.6271 53.3
482 4 19.8394 10.787 53.3
484 4 21.9582 12.1215 53.3
485 3 21.1877 13.3448 53.3
486 4 24.0769 13.456 53.3
487 3 23.3065 14.6793 53.3
488 4 26.1957 14.7905 53.3
489 3 25.4252 16.0137 53.3
490 4 28.3145 16.1249 53.3
491 3 27.544 17.3482 53.3
524 4 22.0545 9.61937 53.3
525 3 21.284 10.8426 53.3
526 4 24.1732 10.9538 53.3
527 3 23.4028 12.1771 53.3
528 4 26.292 12.2883 53.3
529 3 25.5215 13.5116 53.3
530 4 28.4108 13.6228 53.3
531 3 27.6403 14.8461 53.3
565 3 23.4991 9.67497 53.3
566 4 26.3883 9.78618 53.3
567 3 25.6178 11.0094 53.3
568 4 28.5071 11.1207 53.3
569 3 27.7366 12.3439 53.3
601 3 27.8329 9.84178 53.3
150 2 29.5665 16.403 50
152 2 31.7815 17.5706 50
154 2 33.9966 18.7383 50
194 2 29.4702 13.9008 50
196 2 31.6852 15.0685 50
197 1 31.0111 16.3474 50
198 2 33.9003 16.2362 50
199 1 33.2262 17.515 50
200 2 36.1154 17.4038 50
201 1 35.4412 18.6827 50
202 2 38.3305 18.5715 50
232 2 29.3738 11.3987 50
234 2 31.5889 12.5663 50
235 1 30.9148 13.8452 50
236 2 33.804 13.734 50
237 1 33.1298 15.0129 50
238 2 36.0191 14.9017 50
239 1 35.3449 16.1806 50
240 2 38.2342 16.0693 50
241 1 37.56 17.3482 50
266 2 31.4926 10.0642 50
267 1 30.8185 11.3431 50
268 2 33.7077 11.2319 50
269 1 33.0335 12.5107 50
270 2 35.9228 12.3995 50
271 1 35.2486 13.6784 50
272 2 38.1378 13.5672 50
273 1 37.4637 14.8461 50
295 1 32.9372 10.0086 50
296 2 35.8265 9.89738 50
297 1 35.1523 11.1763 50
298 2 38.0415 11.0651 50
299 1 37.3674 12.3439 50
319 1 37.2711 9.84178 50
492 4 30.4332 17.4594 53.3
493 3 29.6628 18.6827 53.3
494 4 32.552 18.7939 53.3
532 4 30.5295 14.9573 53.3
533 3 29.7591 16.1806 53.3
534 4 32.6483 16.2918 53.3
535 3 31.8778 17.515 53.3
536 4 34.7671 17.6262 53.3
570 4 30.6258 12.4551 53.3
571 3 29.8554 13.6784 53.3
572 4 32.7446 13.7896 53.3
573 3 31.9742 15.0129 53.3
574 4 34.8634 15.1241 53.3
575 3 34.0929 16.3474 53.3
576 4 36.9822 16.4586 53.3
577 3 36.2117 17.6818 53.3
602 4 30.7222 9.95299 53.3
603 3 29.9517 11.1763 53.3
604 4 32.8409 11.2875 53.3
605 3 32.0705 12.5107 53.3
606 4 34.9597 12.6219 53.3
607 3 34.1892 13.8452 53.3
608 4 37.0785 13.9564 53.3
609 3 36.308 15.1797 53.3
611 3 38.4268 16.5142 53.3
631 3 32.1668 10.0086 53.3
632 4 35.056 10.1198 53.3
633 3 34.2855 11.3431 53.3
634 4 37.1748 11.4543 53.3
635 3 36.4043 12.6775 53.3
637 3 38.5231 14.012 53.3
655 3 36.5006 10.1754 53.3
657 3 38.6194 11.5099 53.3
242 2 40.4492 17.237 50
243 1 39.7751 18.5159 50
244 2 42.6643 18.4047 50
274 2 40.3529 14.7349 50
275 1 39.6788 16.0137 50
277 1 41.8938 17.1814 50
301 1 39.5825 13.5116 50
578 4 39.1009 17.793 53.3
610 4 39.1972 15.2909 53.3
612 4 41.316 16.6254 53.3
613 3 40.5455 17.8487 53.3
636 4 39.2935 12.7888 53.3
639 3 40.6418 15.3465 53.3
1 1 16.1797 25.6887 50
2 2 19.0689 25.5775 50
3 1 18.3948 26.8564 50
7 1 13.8683 22.0189 50
8 2 16.7575 21.9077 50
9 1 16.0834 23.1866 50
10 2 18.9726 23.0754 50
11 1 18.2985 24.3542 50
21 1 13.772 19.5167 50
22 2 16.6612 19.4055 50
23 1 15.9871 20.6844 50
24 2 18.8763 20.5732 50
25 1 18.2022 21.8521 50
45 1 18.1058 19.3499 50
168 2 16.9502 26.912 50
170 2 19.1652 28.0797 50
210 2 14.6388 23.2422 50
212 2 16.8538 24.4098 50
246 2 12.3274 19.5724 50
248 2 14.5425 20.74 50
339 3 14.2535 24.3542 53.3
340 4 17.1428 24.4654 53.3
341 3 16.3723 25.6887 53.3
342 4 19.2615 25.7999 53.3
343 3 18.4911 27.0232 53.3
345 3 12.2311 20.5176 53.3
346 4 15.1203 20.6288 53.3
347 3 14.3498 21.8521 53.3
348 4 17.2391 21.9633 53.3
349 3 16.4686 23.1866 53.3
350 4 19.3578 23.2978 53.3
351 3 18.5874 24.521 53.3
361 3 14.4462 19.3499 53.3
362 4 17.3354 19.4611 53.3
363 3 16.5649 20.6844 53.3
364 4 19.4542 20.7956 53.3
365 3 18.6837 22.0189 53.3
385 3 18.78 19.5167 53.3
548 4 14.9277 25.6331 53.3
550 4 17.0465 26.9676 53.3
584 4 12.9052 21.7965 53.3
586 4 15.024 23.131 53.3
616 4 13.0015 19.2943 53.3
4 2 21.284 26.7452 50
5 1 20.6098 28.024 50
6 2 23.4991 27.9128 50
12 2 21.1877 24.243 50
13 1 20.5135 25.5219 50
14 2 23.4028 25.4107 50
15 1 22.7286 26.6896 50
16 2 25.6178 26.5784 50
17 1 24.9437 27.8572 50
18 2 27.8329 27.746 50
26 2 21.0914 21.7409 50
27 1 20.4172 23.0198 50
28 2 23.3065 22.9085 50
29 1 22.6323 24.1874 50
30 2 25.5215 24.0762 50
31 1 24.8474 25.3551 50
32 2 27.7366 25.2439 50
33 1 27.0625 26.5228 50
35 1 29.2775 27.6904 50
46 2 20.9951 19.2387 50
47 1 20.3209 20.5176 50
48 2 23.2102 20.4064 50
49 1 22.536 21.6853 50
50 2 25.4252 21.5741 50
51 1 24.7511 22.8529 50
52 2 27.6403 22.7417 50
53 1 26.9662 24.0206 50
55 1 29.1812 25.1883 50
75 1 22.4397 19.1831 50
76 2 25.3289 19.0719 50
77 1 24.6548 20.3508 50
78 2 27.544 20.2396 50
79 1 26.8698 21.5185 50
81 1 29.0849 22.6861 50
111 1 26.7735 19.0163 50
113 1 28.9886 20.184 50
344 4 21.3803 27.1344 53.3
352 4 21.4766 24.6322 53.3
353 3 20.7062 25.8555 53.3
354 4 23.5954 25.9667 53.3
355 3 22.8249 27.19 53.3
356 4 25.7142 27.3012 53.3
366 4 21.5729 22.1301 53.3
367 3 20.8025 23.3534 53.3
368 4 23.6917 23.4646 53.3
369 3 22.9212 24.6879 53.3
370 4 25.8105 24.7991 53.3
371 3 25.04 26.0223 53.3
372 4 27.9292 26.1335 53.3
373 3 27.1588 27.3568 53.3
386 4 21.6692 19.628 53.3
387 3 20.8988 20.8512 53.3
388 4 23.788 20.9624 53.3
389 3 23.0175 22.1857 53.3
390 4 25.9068 22.2969 53.3
391 3 25.1363 23.5202 53.3
392 4 28.0255 23.6314 53.3
393 3 27.2551 24.8547 53.3
415 3 23.1138 19.6836 53.3
416 4 26.0031 19.7948 53.3
417 3 25.2326 21.018 53.3
418 4 28.1218 21.1292 53.3
419 3 27.3514 22.3525 53.3
451 3 27.4477 19.8504 53.3
34 2 29.9517 26.4116 50
36 2 32.1668 27.5792 50
54 2 29.8554 23.9094 50
56 2 32.0705 25.0771 50
57 1 31.3963 26.356 50
58 2 34.2855 26.2447 50
59 1 33.6114 27.5236 50
60 2 36.5006 27.4124 50
80 2 29.7591 21.4073 50
82 2 31.9742 22.5749 50
83 1 31.3 23.8538 50
84 2 34.1892 23.7426 50
85 1 33.5151 25.0215 50
86 2 36.4043 24.9103 50
87 1 35.7302 26.1891 50
88 2 38.6194 26.0779 50
89 1 37.9452 27.3568 50
112 2 29.6628 18.9051 50
114 2 31.8778 20.0728 50
115 1 31.2037 21.3517 50
116 2 34.0929 21.2404 50
117 1 33.4188 22.5193 50
118 2 36.308 22.4081 50
119 1 35.6338 23.687 50
120 2 38.5231 23.5758 50
121 1 37.8489 24.8547 50
153 1 31.1074 18.8495 50
155 1 33.3225 20.0172 50
156 2 36.2117 19.906 50
157 1 35.5375 21.1848 50
158 2 38.4268 21.0736 50
159 1 37.7526 22.3525 50
203 1 37.6563 19.8504 50
374 4 30.048 27.468 53.3
394 4 30.1443 24.9659 53.3
395 3 29.3738 26.1891 53.3
396 4 32.2631 26.3003 53.3
397 3 31.4926 27.5236 53.3
398 4 34.3818 27.6348 53.3
420 4 30.2406 22.4637 53.3
421 3 29.4702 23.687 53.3
422 4 32.3594 23.7982 53.3
423 3 31.5889 25.0215 53.3
424 4 34.4782 25.1327 53.3
425 3 33.7077 26.356 53.3
426 4 36.5969 26.4672 53.3
427 3 35.8265 27.6904 53.3
428 4 38.7157 27.8016 53.3
452 4 30.3369 19.9616 53.3
453 3 29.5665 21.1848 53.3
454 4 32.4557 21.2961 53.3
455 3 31.6852 22.5193 53.3
456 4 34.5745 22.6305 53.3
457 3 33.804 23.8538 53.3
458 4 36.6932 23.965 53.3
459 3 35.9228 25.1883 53.3
460 4 38.812 25.2995 53.3
461 3 38.0415 26.5228 53.3
495 3 31.7815 20.0172 53.3
496 4 34.6708 20.1284 53.3
497 3 33.9003 21.3517 53.3
498 4 36.7895 21.4629 53.3
499 3 36.0191 22.6861 53.3
500 4 38.9083 22.7973 53.3
501 3 38.1378 24.0206 53.3
537 3 33.9966 18.8495 53.3
538 4 36.8858 18.9607 53.3
539 3 36.1154 20.184 53.3
540 4 39.0046 20.2952 53.3
541 3 38.2342 21.5185 53.3
579 3 38.3305 19.0163 53.3
90 2 40.8345 27.2456 50
122 2 40.7382 24.7435 50
123 1 40.064 26.0223 50
124 2 42.9532 25.9111 50
125 1 42.2791 27.19 50
126 2 45.1683 27.0788 50
160 2 40.6418 22.2413 50
161 1 39.9677 23.5202 50
162 2 42.8569 23.409 50
163 1 42.1828 24.6879 50
164 2 45.072 24.5766 50
165 1 44.3978 25.8555 50
166 2 47.2871 25.7443 50
167 1 46.6129 27.0232 50
204 2 40.5455 19.7392 50
205 1 39.8714 21.018 50
206 2 42.7606 20.9068 50
207 1 42.0865 22.1857 50
208 2 44.9757 22.0745 50
209 1 44.3015 23.3534 50
211 1 46.5166 24.521 50
245 1 41.9902 19.6836 50
247 1 44.2052 20.8512 50
462 4 40.9308 26.634 53.3
463 3 40.1603 27.8572 53.3
464 4 43.0495 27.9684 53.3
502 4 41.0271 24.1318 53.3
503 3 40.2566 25.3551 53.3
504 4 43.1458 25.4663 53.3
505 3 42.3754 26.6896 53.3
506 4 45.2646 26.8008 53.3
507 3 44.4942 28.024 53.3
508 4 47.3834 28.1353 53.3
542 4 41.1234 21.6297 53.3
543 3 40.3529 22.8529 53.3
544 4 43.2422 22.9642 53.3
545 3 42.4717 24.1874 53.3
546 4 45.3609 24.2986 53.3
547 3 44.5905 25.5219 53.3
549 3 46.7092 26.8564 53.3
580 4 41.2197 19.1275 53.3
581 3 40.4492 20.3508 53.3
582 4 43.3385 20.462 53.3
583 3 42.568 21.6853 53.3
585 3 44.6868 23.0198 53.3
615 3 42.6643 19.1831 53.3
ITEM: TIMESTEP
100
ITEM: NUMBER OF ATOMS
676
ITEM: BOX BOUNDS xy xz yz pp pp pp
0.0000000000000000e+00 4.8828000000837150e+01 1.6276000000253092e+01
0.0000000000000000e+00 2.8190858943991795e+01 0.0000000000000000e+00
0.0000000000000000e+00 1.0000000000000003e+02 0.0000000000000000e+00
ITEM: ATOMS id type x y z
91 1 4.64597 7.32549 49.9701
92 2 7.52843 7.21034 49.9797
93 1 6.85702 8.4918 49.9907
94 2 9.73771 8.3808 49.9993
127 1 2.32793 3.65992 49.9306
128 2 5.21463 3.53854 49.9403
129 1 4.54553 4.82066 49.9502
130 2 7.43007 4.70363 49.9644
131 1 6.76018 5.98536 49.9737
132 2 9.64299 5.87329 49.9879
133 1 8.97183 7.15432 49.9964
169 1 -1.74144e-09 4.67242e-11 49.9136
171 1 2.22092 1.15742 49.9195
172 2 5.10918 1.03489 49.9308
173 1 4.44078 2.31702 49.9358
174 2 7.32752 2.19869 49.9531
175 1 6.65857 3.48045 49.9588
176 2 9.54373 3.36739 49.9771
177 1 8.87383 4.64851 49.9835
213 1 6.55353 0.977001 49.9502
214 2 9.44119 0.863299 49.9708
215 1 8.77169 2.14419 49.9736
318 2 5.41373 8.55045 49.9766
330 2 3.10164 4.88129 49.9357
332 2 5.31661 6.04376 49.957
336 2 0.776496 1.2197 49.909
338 2 2.99657 2.37768 49.9203
399 3 6.14379 9.02187 53.3091
400 4 9.04251 9.1334 53.3003
429 3 4.12161 5.1872 53.3496
430 4 7.0155 5.3045 53.3349
431 3 6.24071 6.52449 53.3258
432 4 9.13679 6.63708 53.311
433 3 8.36316 7.85771 53.3028
465 3 -1.71927e-09 -1.40636e-11 53.3864
466 4 2.88906 0.124874 53.3852
467 3 2.11266 1.34456 53.3805
468 4 5.00251 1.46714 53.3691
469 3 4.22639 2.68693 53.364
470 4 7.11781 2.80542 53.3463
471 3 6.34228 4.02554 53.3407
472 4 9.23546 4.13897 53.3218
473 3 8.46096 5.35972 53.3154
509 3 4.33359 0.185509 53.3693
510 4 7.22261 0.304351 53.3508
511 3 6.44727 1.52502 53.3496
512 4 9.3376 1.63885 53.3288
513 3 8.56285 2.86001 53.3256
551 3 8.66722 0.358665 53.3297
668 4 4.79522 6.46627 53.3428
670 4 6.91737 7.80172 53.3199
674 4 2.78156 2.62634 53.3796
676 4 4.89714 3.9675 53.3594
134 2 11.8541 7.04671 50.0067
135 1 11.1811 8.32666 50.0143
136 2 14.0647 8.22204 50.0182
178 2 11.7581 4.54067 49.998
179 1 11.0867 5.82083 50.0052
180 2 13.9714 5.71701 50.0125
181 1 13.298 6.99591 50.0207
182 2 16.1848 6.89405 50.0191
183 1 15.5089 8.17151 50.0282
184 2 18.3992 8.06933 50.0182
185 1 17.7208 9.34537 50.0282
216 2 11.6582 2.03599 49.9909
217 1 10.9878 3.31618 49.996
218 2 13.874 3.21261 50.0058
219 1 13.2022 4.49185 50.0134
220 2 16.0894 4.39096 50.0132
221 1 15.4158 5.66906 50.0232
222 2 18.3053 5.56837 50.013
223 1 17.6295 6.84529 50.0251
249 1 10.8857 0.81271 49.9907
250 2 13.7735 0.709088 50.002
251 1 13.1026 1.98841 50.0073
252 2 15.9904 1.88789 50.0084
253 1 15.3185 3.16653 50.0172
254 2 18.2073 3.06662 50.0072
255 1 17.5341 4.34449 50.0193
279 1 15.2183 0.663876 50.014
280 2 18.1066 0.564245 50.0045
281 1 17.4351 1.84283 50.0147
434 4 11.2604 7.96615 53.2919
435 3 10.4884 9.1878 53.2849
436 4 13.3851 9.29357 53.2804
474 4 11.3554 5.4682 53.3
475 3 10.5824 6.68994 53.293
476 4 13.4768 6.79466 53.2845
477 3 12.706 8.01774 53.277
478 4 15.5987 8.12067 53.277
479 3 14.8304 9.34529 53.2691
514 4 11.4544 2.96854 53.3077
515 3 10.6807 4.19051 53.3023
516 4 13.5728 4.29464 53.2914
517 3 12.8007 5.5177 53.2837
518 4 15.6919 5.61929 53.2821
519 3 14.9221 6.84367 53.2724
520 4 17.811 6.94503 53.2804
521 3 17.0436 8.17082 53.2691
552 4 11.5561 0.467125 53.3113
553 3 10.7825 1.68956 53.3086
554 4 13.6723 1.79337 53.2968
555 3 12.8995 3.01652 53.2907
556 4 15.7892 3.11737 53.2885
557 3 15.0179 4.34144 53.2789
558 4 17.9063 4.44168 53.2872
559 3 17.1368 5.66679 53.2745
561 3 19.2554 6.99484 53.277
587 3 13.0009 0.51442 53.2943
588 4 15.8895 0.614948 53.2924
589 3 15.1172 1.83884 53.2844
590 4 18.0055 1.93857 53.2933
591 3 17.2341 3.16299 53.2814
593 3 19.3509 4.48934 53.2849
617 3 17.3343 0.659701 53.2857
619 3 19.4502 1.98491 53.2918
186 2 20.6152 9.2411 50.0125
224 2 20.5223 6.7426 50.0067
225 1 19.8444 8.01845 50.0207
226 2 22.7406 7.91248 49.998
227 1 22.0608 9.18755 50.0134
228 2 24.9597 9.07828 49.9909
256 2 20.4252 4.24271 49.9993
257 1 19.7503 5.51983 50.0143
258 2 22.6441 5.41443 49.9879
259 1 21.9677 6.69095 50.0052
260 2 24.8639 6.58142 49.9771
261 1 24.1862 7.85763 49.996
262 2 27.0838 7.74466 49.9708
263 1 26.4053 9.02092 49.9907
264 2 29.3025 8.90602 49.9712
282 2 20.3245 1.74148 49.9943
283 1 19.6523 3.01978 50.0081
284 2 22.5434 2.91464 49.9797
285 1 21.8703 4.19267 49.9964
286 2 24.7635 4.08282 49.9644
287 1 24.0894 5.3607 49.9835
288 2 26.9841 5.24647 49.9531
289 1 26.3092 6.52441 49.9736
290 2 29.2043 6.40714 49.9492
291 1 28.529 7.68536 49.9703
303 1 19.5515 0.518184 50.0055
304 2 22.4402 0.413206 49.9766
305 1 21.7694 1.69246 49.9907
306 2 24.6596 1.58244 49.957
307 1 23.9884 2.86181 49.9737
308 2 26.8802 2.74673 49.9403
309 1 26.2086 4.02627 49.9588
310 2 29.1012 3.90724 49.9308
311 1 28.4291 5.18702 49.9502
321 1 23.8849 0.360784 49.9701
322 2 26.7739 0.245453 49.9357
323 1 26.1044 1.52622 49.9502
324 2 28.9946 1.40627 49.9203
325 1 28.325 2.68732 49.9358
333 1 28.2185 0.186084 49.9306
522 4 19.9292 8.27395 53.2845
560 4 20.0229 5.7687 53.2919
562 4 22.1387 7.09994 53.3
563 3 21.3732 8.32692 53.2837
564 4 24.254 8.43554 53.3077
592 4 20.121 3.26434 53.3003
594 4 22.2357 4.59415 53.311
595 3 21.4671 5.81968 53.293
596 4 24.3498 5.92866 53.3218
597 3 23.5825 7.15455 53.3023
598 4 26.4639 7.26717 53.3288
599 3 25.6975 8.49314 53.3086
600 4 28.579 8.60796 53.3292
618 4 20.2223 0.760918 53.3056
620 4 22.3368 2.08975 53.3199
621 3 21.5654 3.31386 53.3028
622 4 24.4504 3.42335 53.3349
623 3 23.6799 4.64754 53.3154
624 4 26.5635 4.76149 53.3463
625 3 25.7937 5.98564 53.3256
626 4 28.6771 6.10279 53.3508
627 3 27.9078 7.3267 53.3297
641 3 21.6669 0.809749 53.3091
642 4 24.5544 0.919649 53.3428
643 3 23.7813 2.14237 53.3258
644 4 26.6675 2.25729 53.3594
645 3 25.8946 3.4798 53.3407
646 4 28.7802 3.59874 53.3691
647 3 28.0077 4.82099 53.3496
659 3 25.999 0.975818 53.3496
660 4 28.8867 1.09573 53.3796
661 3 28.1119 2.3167 53.364
292 2 31.4227 7.56691 49.9537
293 1 30.7474 8.84565 49.9744
294 2 33.6381 8.72786 49.9651
312 2 31.3213 5.06587 49.9309
313 1 30.6491 6.34601 49.9504
314 2 33.5394 6.2248 49.9406
315 1 32.8671 7.50534 49.9593
316 2 35.7543 7.38592 49.9572
317 1 35.082 8.66685 49.9742
326 2 31.2156 2.56444 49.9148
327 1 30.5459 3.84575 49.9307
328 2 33.4357 3.72207 49.9204
329 1 32.7658 5.00363 49.936
331 1 34.9834 6.16302 49.9504
334 2 31.1075 0.0626174 49.909
335 1 30.4392 1.34467 49.9195
337 1 32.6601 2.50189 49.9195
628 4 30.7924 7.44516 53.3469
629 3 30.0231 8.6686 53.3264
630 4 32.9104 8.78645 53.3356
648 4 30.8936 4.94212 53.3692
649 3 30.1213 6.16402 53.3498
650 4 33.0092 6.28527 53.3597
651 3 32.2369 7.50672 53.3412
652 4 35.1277 7.6262 53.343
653 3 34.3554 8.84717 53.3263
654 4 37.25 8.96365 53.3234
662 4 30.9993 2.43956 53.3852
663 3 30.2246 3.66024 53.3693
664 4 33.1128 3.78395 53.3797
665 3 32.3382 5.00433 53.3642
666 4 35.2285 5.12674 53.3643
667 3 34.454 6.34687 53.3498
669 3 36.5731 7.68628 53.3299
671 3 30.3312 1.15733 53.3805
672 4 33.22 1.28231 53.391
673 3 32.4439 2.50208 53.3805
675 3 34.5576 3.846 53.3694
37 1 9.24181 14.6795 50.014
61 1 6.94903 10.9997 50.0055
63 1 9.15438 12.1702 50.0147
95 1 9.06507 9.66161 50.0081
300 2 7.71133 12.2279 50.0045
320 2 7.62192 9.7186 49.9943
375 3 8.18017 12.8491 53.2857
401 3 8.26989 10.354 53.2918
638 4 8.86383 14.1227 53.2924
656 4 6.82385 10.2974 53.3056
658 4 8.95212 11.6284 53.2933
19 1 11.537 18.3572 49.9907
20 2 14.4204 18.2421 49.9771
38 2 12.1212 14.5693 50.0058
39 1 11.4467 15.8494 50.0073
40 2 14.3293 15.7377 49.998
41 1 13.654 17.017 49.996
42 2 16.5409 16.9031 49.9879
43 1 15.8648 18.1816 49.9835
44 2 18.7561 18.0659 49.9797
62 2 9.8281 10.8895 50.0072
64 2 12.034 12.0616 50.0132
65 1 11.359 13.3414 50.0172
66 2 14.2414 13.2327 50.0125
67 1 13.5649 14.5115 50.0134
68 2 16.4516 14.4015 50.0067
69 1 15.7736 15.6791 50.0052
70 2 18.6651 15.5674 49.9993
71 1 17.9859 16.8439 49.9964
96 2 11.9457 9.55382 50.013
97 1 11.2714 10.8336 50.0193
98 2 14.154 10.7274 50.0191
99 1 13.4777 12.0059 50.0232
100 2 16.3642 11.8995 50.0182
101 1 15.6856 13.1765 50.0207
102 2 18.577 13.0687 50.013
103 1 17.8965 14.3444 50.0143
137 1 13.3894 9.5006 50.0251
138 2 16.276 9.39695 50.0218
139 1 15.5983 10.674 50.0282
140 2 18.4892 10.5694 50.0191
141 1 17.809 11.845 50.0251
276 2 10.0033 15.9081 50.002
278 2 12.2101 17.0766 49.9909
302 2 9.91578 13.3989 50.0084
357 3 10.2211 16.6745 53.2943
358 4 13.1196 16.7868 53.3077
359 3 12.348 18.0082 53.3086
360 4 15.2427 18.1232 53.3218
376 4 11.0811 12.9583 53.2885
377 3 10.3099 14.1795 53.2844
378 4 13.2089 14.2892 53.2914
379 3 12.4386 15.5113 53.2907
380 4 15.3339 15.6227 53.3
381 3 14.5647 16.8458 53.3023
382 4 17.4555 16.9596 53.311
383 3 16.6872 18.1836 53.3154
402 4 11.1694 10.4627 53.2872
403 3 10.3982 11.6842 53.2814
404 4 13.2965 11.7916 53.2821
405 3 12.5269 13.0143 53.2789
406 4 15.4219 13.1222 53.2845
407 3 14.6541 14.3462 53.2837
408 4 17.5447 14.456 53.2919
409 3 16.7784 15.6812 53.293
411 3 18.8994 17.0193 53.3028
437 3 12.6152 10.5166 53.2745
438 4 15.5093 10.6216 53.277
439 3 14.7418 11.8461 53.2724
440 4 17.6319 11.9523 53.2804
441 3 16.8666 13.1783 53.277
443 3 18.9887 14.5137 53.2849
480 4 17.7199 9.44857 53.277
481 3 16.9541 10.6747 53.2691
483 3 19.076 12.0075 53.2745
523 3 19.1642 9.50105 53.2724
614 4 10.9025 17.9494 53.3113
640 4 10.993 15.4536 53.2968
72 2 20.8816 16.7308 49.9943
73 1 20.2016 18.0066 49.9907
74 2 23.0998 17.8934 49.9944
104 2 20.7926 14.2347 50.0072
105 1 20.1107 15.5095 50.0081
106 2 23.01 15.3987 50.0045
107 1 22.3275 16.673 50.0055
108 2 25.2281 16.5625 50.0067
109 1 24.5459 17.8368 50.0082
110 2 27.4454 17.7282 50.0128
142 2 20.7046 11.7383 50.0132
143 1 20.0225 13.0128 50.0193
144 2 22.9219 12.9041 50.0084
145 1 22.2385 14.1778 50.0147
146 2 25.1398 14.0682 50.0076
147 1 24.4562 15.3418 50.0143
148 2 27.3571 15.2326 50.0115
149 1 26.6742 16.5067 50.0186
151 1 28.8912 17.6743 50.0255
187 1 19.9346 10.5159 50.0232
188 2 22.8328 10.4089 50.0058
189 1 22.1504 11.683 50.0172
190 2 25.0512 11.5737 50.002
191 1 24.3679 12.8475 50.014
192 2 27.269 12.7372 50.0032
193 1 26.5859 14.0113 50.0156
195 1 28.8029 15.1766 50.0211
229 1 24.2787 10.353 50.0073
230 2 27.1785 10.2415 49.9887
231 1 26.4971 11.5163 50.0057
233 1 28.7146 12.6796 50.0093
265 1 28.624 10.1827 49.9914
384 4 19.5738 18.2994 53.3199
410 4 19.6645 15.7931 53.3003
412 4 21.7819 17.1325 53.3056
413 3 21.0173 18.3592 53.3091
414 4 23.8979 18.4723 53.3057
442 4 19.7522 13.2865 53.2872
444 4 21.8704 14.6239 53.2933
445 3 21.1079 15.8519 53.2918
446 4 23.9873 15.9629 53.2955
447 3 23.225 17.1912 53.2945
448 4 26.1041 17.3013 53.2928
449 3 25.3411 18.5293 53.2919
450 4 28.2217 18.637 53.287
482 4 19.8396 10.78 53.2821
484 4 21.9577 12.1152 53.2885
485 3 21.1957 13.3437 53.2814
486 4 24.0747 13.4532 53.2924
487 3 23.3135 14.6821 53.2857
488 4 26.1918 14.792 53.2916
489 3 25.4304 16.0207 53.2853
490 4 28.31 16.1293 53.2868
491 3 27.5474 17.3573 53.2807
524 4 22.0464 9.60704 53.2914
525 3 21.2833 10.8351 53.2789
526 4 24.1628 10.9439 53.2968
527 3 23.4009 12.1725 53.2844
528 4 26.2793 12.2828 53.298
529 3 25.5178 13.5113 53.286
530 4 28.3972 13.6215 53.2942
531 3 27.635 14.8495 53.2828
565 3 23.4899 9.66304 53.2907
566 4 26.3694 9.77433 53.3113
567 3 25.606 11.0019 53.2943
568 4 28.4861 11.1143 53.3091
569 3 27.7227 12.3414 53.2927
601 3 27.813 9.83363 53.3093
150 2 29.5725 16.3993 50.0179
152 2 31.7853 17.5692 50.023
154 2 33.9959 18.7423 50.023
194 2 29.4849 13.9017 50.0086
196 2 31.6979 15.0686 50.0155
197 1 31.0178 16.3447 50.0276
198 2 33.9079 16.2386 50.0196
199 1 33.2301 17.5161 50.0309
200 2 36.1156 17.4109 50.0179
201 1 35.4402 18.6898 50.0276
202 2 38.3224 18.5838 50.0086
232 2 29.3956 11.4041 49.9923
234 2 31.6099 12.5681 50
235 1 30.9301 13.8446 50.0163
236 2 33.8207 13.7349 50.0081
237 1 33.1426 15.0126 50.023
238 2 36.0282 14.9044 50.0128
239 1 35.352 16.1834 50.0255
240 2 38.2337 16.0757 50.0115
241 1 37.5593 17.3557 50.0211
266 2 31.5187 10.0676 49.9782
267 1 30.8407 11.3451 49.9977
268 2 33.7315 11.2312 49.989
269 1 33.0544 12.5096 50.007
270 2 35.9405 12.3977 49.9997
271 1 35.2647 13.6771 50.0151
272 2 38.1464 13.5669 50.0067
273 1 37.4717 14.8472 50.0186
295 1 32.9632 10.0073 49.9846
296 2 35.8498 9.89147 49.9801
297 1 35.1754 11.1716 49.9972
298 2 38.0579 11.0583 49.9944
299 1 37.3839 12.339 50.0082