LAMMPS data file

676 atoms
4 atom types
0.0 32.55200000058406 xlo xhi
0.0 28.190858943991795 ylo yhi
0.0 100.00000000000003 zlo zhi
16.27600000025309 0.0 0.0 xy xz yz

Masses

1 10.81
2 14.007
3 10.81
4 14.007

Atoms

1 1 1 0.42 16.17969230794713 25.688711700442227 50.00000000000001
2 1 2 -0.42 19.06892307434066 25.57750515639568 50.00000000000001
3 1 1 0.42 18.39476923106218 26.856380414098695 50.00000000000001
4 1 2 -0.42 21.283999997455712 26.74517387005214 50.00000000000001
5 1 1 0.42 20.609846154177234 28.024049127755163 50.00000000000001
6 1 2 -0.42 23.499076920570765 27.912842583708606 50.00000000000001
7 1 1 0.42 13.86830769252611 22.018895743236197 50.00000000000001
8 1 2 -0.42 16.757538458919644 21.907689199189647 50.00000000000001
9 1 1 0.42 16.08338461564116 23.186564456892665 50.00000000000001
10 1 2 -0.42 18.972615382034697 23.075357912846115 50.00000000000001
11 1 1 0.42 18.298461538756218 24.354233170549126 50.00000000000001
12 1 2 -0.42 21.18769230514975 24.243026626502573 50.00000000000001
13 1 1 0.42 20.513538461871274 25.52190188420559 50.00000000000001
14 1 2 -0.42 23.402769228264802 25.41069534015904 50.00000000000001
15 1 1 0.42 22.728615384986327 26.689570597862055 50.00000000000001
16 1 2 -0.42 25.617846151379855 26.5783640538155 50.00000000000001
17 1 1 0.42 24.943692308101372 27.85723931151852 50.00000000000001
18 1 2 -0.42 27.832923074494904 27.746032767471966 50.00000000000001
19 1 1 0.42 11.556923077105091 18.349079786030167 50.00000000000001
20 1 2 -0.42 14.446153843498625 18.237873241983618 50.00000000000001
21 1 1 0.42 13.772000000220144 19.516748499686628 50.00000000000001
22 1 2 -0.42 16.661230766613674 19.405541955640082 50.00000000000001
23 1 1 0.42 15.987076923335199 20.684417213343092 50.00000000000001
24 1 2 -0.42 18.87630768972873 20.57321066929654 50.00000000000001
25 1 1 0.42 18.20215384645025 21.852085926999557 50.00000000000001
26 1 2 -0.42 21.091384612843786 21.740879382953004 50.00000000000001
27 1 1 0.42 20.417230769565304 23.01975464065602 50.00000000000001
28 1 2 -0.42 23.306461535958835 22.90854809660947 50.00000000000001
29 1 1 0.42 22.632307692680357 24.187423354312493 50.00000000000001
30 1 2 -0.42 25.521538459073888 24.076216810265933 50.00000000000001
31 1 1 0.42 24.847384615795413 25.355092067968958 50.00000000000001
32 1 2 -0.42 27.73661538218894 25.243885523922398 50.00000000000001
33 1 1 0.42 27.062461538910465 26.522760781625422 50.00000000000001
34 1 2 -0.42 29.951692305304 26.411554237578866 50.00000000000001
35 1 1 0.42 29.27753846202552 27.690429495281887 50.00000000000001
36 1 2 -0.42 32.16676922841906 27.579222951235334 50.00000000000001
37 1 1 0.42 9.245538461684072 14.67926382882413 50.00000000000001
38 1 2 -0.42 12.134769228077605 14.568057284777579 50.00000000000001
39 1 1 0.42 11.460615384799127 15.846932542480602 50.00000000000001
40 1 2 -0.42 14.34984615119266 15.735725998434043 50.00000000000001
41 1 1 0.42 13.675692307914181 17.01460125613706 50.00000000000001
42 1 2 -0.42 16.564923074307714 16.903394712090513 50.00000000000001
43 1 1 0.42 15.890769231029234 18.182269969793524 50.00000000000001
44 1 2 -0.42 18.779999997422767 18.071063425746978 50.00000000000001
45 1 1 0.42 18.105846154144288 19.34993868344999 50.00000000000001
46 1 2 -0.42 20.99507692053782 19.23873213940344 50.00000000000001
47 1 1 0.42 20.32092307725934 20.51760739710646 50.00000000000001
48 1 2 -0.42 23.210153843652872 20.406400853059903 50.00000000000001
49 1 1 0.42 22.536000000374397 21.685276110762917 50.00000000000001
50 1 2 -0.42 25.42523076676792 21.574069566716368 50.00000000000001
51 1 1 0.42 24.75107692348945 22.85294482441938 50.00000000000001
52 1 2 -0.42 27.640307689882977 22.741738280372836 50.00000000000001
53 1 1 0.42 26.966153846604495 24.020613538075846 50.00000000000001
54 1 2 -0.42 29.85538461299803 23.909406994029293 50.00000000000001
55 1 1 0.42 29.181230769719562 25.188282251732318 50.00000000000001
56 1 2 -0.42 32.070461536113086 25.07707570768577 50.00000000000001
57 1 1 0.42 31.396307692834608 26.355950965388786 50.00000000000001
58 1 2 -0.42 34.28553845922814 26.24474442134223 50.00000000000001
59 1 1 0.42 33.61138461594966 27.52361967904525 50.00000000000001
60 1 2 -0.42 36.5006153823432 27.412413134998694 50.00000000000001
61 1 1 0.42 6.934153846263055 11.009447871618098 50.00000000000001
62 1 2 -0.42 9.823384612656588 10.898241327571546 50.00000000000001
63 1 1 0.42 9.149230769378109 12.177116585274563 50.00000000000001
64 1 2 -0.42 12.03846153577164 12.065910041228014 50.00000000000001
65 1 1 0.42 11.364307692493163 13.344785298931027 50.00000000000001
66 1 2 -0.42 14.253538458886693 13.233578754884476 50.00000000000001
67 1 1 0.42 13.579384615608216 14.512454012587497 50.00000000000001
68 1 2 -0.42 16.46861538200175 14.40124746854094 50.00000000000001
69 1 1 0.42 15.79446153872327 15.680122726243962 50.00000000000001
70 1 2 -0.42 18.6836923051168 15.568916182197405 50.00000000000001
71 1 1 0.42 18.009538461838325 16.84779143990042 50.00000000000001
72 1 2 -0.42 20.898769228231856 16.73658489585387 50.00000000000001
73 1 1 0.42 20.22461538495337 18.015460153556884 50.00000000000001
74 1 2 -0.42 23.113846151346905 17.90425360951033 50.00000000000001
75 1 1 0.42 22.439692308068434 19.183128867213348 50.00000000000001
76 1 2 -0.42 25.32892307446196 19.071922323166795 50.00000000000001
77 1 1 0.42 24.65476923118348 20.350797580869816 50.00000000000001
78 1 2 -0.42 27.54399999757701 20.239591036823263 50.00000000000001
79 1 1 0.42 26.869846154298536 21.518466294526284 50.00000000000001
80 1 2 -0.42 29.759076920692063 21.407259750479728 50.00000000000001
81 1 1 0.42 29.084923077413592 22.68613500818275 50.00000000000001
82 1 2 -0.42 31.974153843807123 22.574928464136192 50.00000000000001
83 1 1 0.42 31.30000000052864 23.853803721839217 50.00000000000001
84 1 2 -0.42 34.18923076692218 23.742597177792664 50.00000000000001
85 1 1 0.42 33.515076923643704 25.02147243549568 50.00000000000001
86 1 2 -0.42 36.40430769003722 24.91026589144913 50.00000000000001
87 1 1 0.42 35.73015384675876 26.189141149152142 50.00000000000001
88 1 2 -0.42 38.61938461315228 26.077934605105597 50.00000000000001
89 1 1 0.42 37.94523076987381 27.356809862808603 50.00000000000001
90 1 2 -0.42 40.83446153626734 27.24560331876206 50.00000000000001
91 1 1 0.42 4.622769230842036 7.339631914412065 50.00000000000001
92 1 2 -0.42 7.511999997235568 7.228425370365513 50.00000000000001
93 1 1 0.42 6.8378461539570905 8.50730062806853 50.00000000000001
94 1 2 -0.42 9.727076920350623 8.396094084021977 50.00000000000001
95 1 1 0.42 9.052923077072144 9.674969341724996 50.00000000000001
96 1 2 -0.42 11.942153843465677 9.563762797678443 50.00000000000001
97 1 1 0.42 11.268000000187198 10.842638055381459 50.00000000000001
98 1 2 -0.42 14.15723076658073 10.731431511334906 50.00000000000001
99 1 1 0.42 13.483076923302248 12.010306769037923 50.00000000000001
100 1 2 -0.42 16.37230768969578 11.89910022499137 50.00000000000001
101 1 1 0.42 15.698153846417304 13.177975482694393 50.00000000000001
102 1 2 -0.42 18.587384612810837 13.06676893864784 50.00000000000001
103 1 1 0.42 17.91323076953236 14.345644196350852 50.00000000000001
104 1 2 -0.42 20.80246153592589 14.234437652304301 50.00000000000001
105 1 1 0.42 20.12830769264741 15.513312910007317 50.00000000000001
106 1 2 -0.42 23.017538459040942 15.402106365960769 50.00000000000001
107 1 1 0.42 22.343384615762467 16.680981623663786 50.00000000000001
108 1 2 -0.42 25.232615382156 16.56977507961723 50.00000000000001
109 1 1 0.42 24.55846153887752 17.848650337320255 50.00000000000001
110 1 2 -0.42 27.44769230527105 17.737443793273698 50.00000000000001
111 1 1 0.42 26.77353846199257 19.01631905097672 50.00000000000001
112 1 2 -0.42 29.662769228386104 18.905112506930163 50.00000000000001
113 1 1 0.42 28.98861538510762 20.183987764633184 50.00000000000001
114 1 2 -0.42 31.877846151501156 20.07278122058663 50.00000000000001
115 1 1 0.42 31.20369230822268 21.35165647828964 50.00000000000001
116 1 2 -0.42 34.09292307461621 21.240449934243095 50.00000000000001
117 1 1 0.42 33.418769231337734 22.519325191946116 50.00000000000001
118 1 2 -0.42 36.307999997731265 22.408118647899563 50.00000000000001
119 1 1 0.42 35.63384615445279 23.686993905602574 50.00000000000001
120 1 2 -0.42 38.52307692084632 23.575787361556028 50.00000000000001
121 1 1 0.42 37.84892307756783 24.854662619259038 50.00000000000001
122 1 2 -0.42 40.73815384396137 24.743456075212485 50.00000000000001
123 1 1 0.42 40.064000000682896 26.022331332915503 50.00000000000001
124 1 2 -0.42 42.95323076707642 25.91112478886895 50.00000000000001
125 1 1 0.42 42.27907692379795 27.190000046571967 50.00000000000001
126 1 2 -0.42 45.16830769019148 27.078793502525414 50.00000000000001
127 1 1 0.42 2.311384615421018 3.6698159572060325 50.00000000000001
128 1 2 -0.42 5.200615381814551 3.55860941315948 50.00000000000001
129 1 1 0.42 4.526461538536072 4.837484670862498 50.00000000000001
130 1 2 -0.42 7.415692304929604 4.726278126815946 50.00000000000001
131 1 1 0.42 6.741538461651124 6.0051533845189615 50.00000000000001
132 1 2 -0.42 9.630769228044656 5.89394684047241 50.00000000000001
133 1 1 0.42 8.95661538476618 7.172822098175426 50.00000000000001
134 1 2 -0.42 11.845846151159712 7.061615554128874 50.00000000000001
135 1 1 0.42 11.171692307881234 8.340490811831893 50.00000000000001
136 1 2 -0.42 14.060923074274765 8.229284267785339 50.00000000000001
137 1 1 0.42 13.386769230996284 9.50815952548836 50.00000000000001
138 1 2 -0.42 16.275999997389818 9.396952981441805 50.00000000000001
139 1 1 0.42 15.60184615411134 10.67582823914482 50.00000000000001
140 1 2 -0.42 18.491076920504874 10.56462169509827 50.00000000000001
141 1 1 0.42 17.816923077226395 11.843496952801287 50.00000000000001
142 1 2 -0.42 20.706153843619923 11.732290408754737 50.00000000000001
143 1 1 0.42 20.032000000341448 13.011165666457751 50.00000000000001
144 1 2 -0.42 22.92123076673498 12.899959122411202 50.00000000000001
145 1 1 0.42 22.247076923456504 14.178834380114216 50.00000000000001
146 1 2 -0.42 25.136307689850035 14.067627836067668 50.00000000000001
147 1 1 0.42 24.462153846571557 15.34650309377068 50.00000000000001
148 1 2 -0.42 27.351384612965088 15.235296549724131 50.00000000000001
149 1 1 0.42 26.677230769686613 16.514171807427147 50.00000000000001
150 1 2 -0.42 29.566461536080144 16.40296526338059 50.00000000000001
151 1 1 0.42 28.89230769280167 17.681840521083615 50.00000000000001
152 1 2 -0.42 31.78153845919519 17.57063397703706 50.00000000000001
153 1 1 0.42 31.107384615916718 18.849509234740083 50.00000000000001
154 1 2 -0.42 33.996615382310246 18.738302690693523 50.00000000000001
155 1 1 0.42 33.322461539031764 20.017177948396547 50.00000000000001
156 1 2 -0.42 36.2116923054253 19.905971404349987 50.00000000000001
157 1 1 0.42 35.53753846214683 21.184846662053005 50.00000000000001
158 1 2 -0.42 38.42676922854036 21.073640118006455 50.00000000000001
159 1 1 0.42 37.75261538526188 22.35251537570947 50.00000000000001
160 1 2 -0.42 40.64184615165541 22.24130883166292 50.00000000000001
161 1 1 0.42 39.96769230837693 23.52018408936594 50.00000000000001
162 1 2 -0.42 42.85692307477046 23.40897754531938 50.00000000000001
163 1 1 0.42 42.182769231491974 24.6878528030224 50.00000000000001
164 1 2 -0.42 45.07199999788551 24.576646258975845 50.00000000000001
165 1 1 0.42 44.397846154607045 25.855521516678863 50.00000000000001
166 1 2 -0.42 47.28707692100056 25.744314972632313 50.00000000000001
167 1 1 0.42 46.61292307772209 27.023190230335327 50.00000000000001
168 1 2 -0.42 16.950153843531567 26.911983686288774 50.00000000000001
169 1 1 0.42 0.0 0.0 50.00000000000001
170 1 2 -0.42 19.165230766646623 28.079652399945246 50.00000000000001
171 1 1 0.42 2.215076923115054 1.1676687136564647 50.00000000000001
172 1 2 -0.42 5.104307689508585 1.0564621696099128 50.00000000000001
173 1 1 0.42 4.430153846230108 2.3353374273129295 50.00000000000001
174 1 2 -0.42 7.319384612623638 2.2241308832663775 50.00000000000001
175 1 1 0.42 6.6452307693451615 3.5030061409693953 50.00000000000001
176 1 2 -0.42 9.534461535738695 3.391799596922842 50.00000000000001
177 1 1 0.42 8.860307692460216 4.670674854625859 50.00000000000001
178 1 2 -0.42 11.749538458853747 4.559468310579308 50.00000000000001
179 1 1 0.42 11.075384615575269 5.8383435682823235 50.00000000000001
180 1 2 -0.42 13.9646153819688 5.7271370242357715 50.00000000000001
181 1 1 0.42 13.290461538690323 7.006012281938791 50.00000000000001
182 1 2 -0.42 16.179692305083858 6.894805737892238 50.00000000000001
183 1 1 0.42 15.505538461805372 8.173680995595257 50.00000000000001
184 1 2 -0.42 18.394769228198907 8.0624744515487 50.00000000000001
185 1 1 0.42 17.720615384920432 9.341349709251718 50.00000000000001
186 1 2 -0.42 20.60984615131396 9.230143165205167 50.00000000000001
187 1 1 0.42 19.93569230803548 10.509018422908182 50.00000000000001
188 1 2 -0.42 22.824923074429016 10.397811878861633 50.00000000000001
189 1 1 0.42 22.150769231150537 11.676687136564647 50.00000000000001
190 1 2 -0.42 25.03999999754407 11.565480592518098 50.00000000000001
191 1 1 0.42 24.36584615426559 12.844355850221115 50.00000000000001
192 1 2 -0.42 27.255076920659118 12.733149306174559 50.00000000000001
193 1 1 0.42 26.580923077380646 14.012024563877581 50.00000000000001
194 1 2 -0.42 29.470153843774174 13.900818019831025 50.00000000000001
195 1 1 0.42 28.7960000004957 15.179693277534042 50.00000000000001
196 1 2 -0.42 31.68523076688923 15.068486733487491 50.00000000000001
197 1 1 0.42 31.011076923610744 16.347361991190514 50.00000000000001
198 1 2 -0.42 33.90030769000428 16.236155447143958 50.00000000000001
199 1 1 0.42 33.22615384672581 17.51503070484698 50.00000000000001
200 1 2 -0.42 36.11538461311933 17.403824160800426 50.00000000000001
201 1 1 0.42 35.441230769840864 18.682699418503436 50.00000000000001
202 1 2 -0.42 38.33046153623439 18.57149287445689 50.00000000000001
203 1 1 0.42 37.656307692955906 19.8503681321599 50.00000000000001
204 1 2 -0.42 40.545538459349444 19.739161588113355 50.00000000000001
205 1 1 0.42 39.87138461607096 21.018036845816365 50.00000000000001
206 1 2 -0.42 42.7606153824645 20.906830301769812 50.00000000000001
207 1 1 0.42 42.086461539186026 22.18570555947283 50.00000000000001
208 1 2 -0.42 44.97569230557955 22.074499015426277 50.00000000000001
209 1 1 0.42 44.301538462301075 23.353374273129294 50.00000000000001
210 1 2 -0.42 14.638769228110545 23.24216772908274 50.00000000000001
211 1 1 0.42 46.516615385416124 24.521042986785766 50.00000000000001
212 1 2 -0.42 16.853846151225596 24.409836442739213 50.00000000000001
213 1 1 0.42 6.548923077039196 1.0008588974198267 50.00000000000001
214 1 2 -0.42 9.438153843432724 0.8896523533732744 50.00000000000001
215 1 1 0.42 8.764000000154248 2.1685276110762914 50.00000000000001
216 1 2 -0.42 11.653230766547782 2.057321067029739 50.00000000000001
217 1 1 0.42 10.979076923269304 3.336196324732756 50.00000000000001
218 1 2 -0.42 13.868307689662835 3.2249897806862036 50.00000000000001
219 1 1 0.42 13.19415384638436 4.503865038389222 50.00000000000001
220 1 2 -0.42 16.08338461277789 4.392658494342671 50.00000000000001
221 1 1 0.42 15.409230769499414 5.671533752045686 50.00000000000001
222 1 2 -0.42 18.298461535892944 5.560327207999134 50.00000000000001
223 1 1 0.42 17.62430769261447 6.83920246570215 50.00000000000001
224 1 2 -0.42 20.513538459007997 6.727995921655598 50.00000000000001
225 1 1 0.42 19.839384615729518 8.006871179358615 50.00000000000001
226 1 2 -0.42 22.72861538212305 7.895664635312065 50.00000000000001
227 1 1 0.42 22.05446153884457 9.17453989301508 50.00000000000001
228 1 2 -0.42 24.9436923052381 9.06333334896853 50.00000000000001
229 1 1 0.42 24.269538461959627 10.342208606671544 50.00000000000001
230 1 2 -0.42 27.158769228353155 10.231002062624993 50.00000000000001
231 1 1 0.42 26.484615385074676 11.509877320328012 50.00000000000001
232 1 2 -0.42 29.37384615146821 11.398670776281458 50.00000000000001
233 1 1 0.42 28.699692308189732 12.677546033984475 50.00000000000001
234 1 2 -0.42 31.588923074583267 12.566339489937922 50.00000000000001
235 1 1 0.42 30.914769231304785 13.84521474764094 50.00000000000001
236 1 2 -0.42 33.80399999769831 13.73400820359439 50.00000000000001
237 1 1 0.42 33.129846154419845 15.01288346129741 50.00000000000001
238 1 2 -0.42 36.019076920813376 14.901676917250859 50.00000000000001
239 1 1 0.42 35.34492307753489 16.18055217495387 50.00000000000001
240 1 2 -0.42 38.234153843928425 16.069345630907318 50.00000000000001
241 1 1 0.42 37.56000000064995 17.34822088861033 50.00000000000001
242 1 2 -0.42 40.449230767043474 17.237014344563782 50.00000000000001
243 1 1 0.42 39.775076923765 18.515889602266796 50.00000000000001
244 1 2 -0.42 42.66430769015853 18.404683058220243 50.00000000000001
245 1 1 0.42 41.990153846880055 19.683558315923264 50.00000000000001
246 1 2 -0.42 12.327384612689523 19.57235177187671 50.00000000000001
247 1 1 0.42 44.205230769995104 20.851227029579732 50.00000000000001
248 1 2 -0.42 14.542461535804577 20.74002048553318 50.00000000000001
249 1 1 0.42 10.882769230963339 0.8340490811831887 50.00000000000001
250 1 2 -0.42 13.771999997356872 0.7228425371366362 50.00000000000001
251 1 1 0.42 13.097846154078391 2.0017177948396534 50.00000000000001
252 1 2 -0.42 15.987076920471925 1.8905112507931014 50.00000000000001
253 1 1 0.42 15.312923077193448 3.1693865084961175 50.00000000000001
254 1 2 -0.42 18.202153843586984 3.058179964449566 50.00000000000001
255 1 1 0.42 17.528000000308495 4.337055222152583 50.00000000000001
256 1 2 -0.42 20.41723076670203 4.225848678106031 50.00000000000001
257 1 1 0.42 19.743076923423555 5.5047239358090465 50.00000000000001
258 1 2 -0.42 22.63230768981708 5.393517391762496 50.00000000000001
259 1 1 0.42 21.958153846538607 6.672392649465512 50.00000000000001
260 1 2 -0.42 24.84738461293214 6.56118610541896 50.00000000000001
261 1 1 0.42 24.173230769653657 7.840061363121977 50.00000000000001
262 1 2 -0.42 27.062461536047195 7.728854819075425 50.00000000000001
263 1 1 0.42 26.38830769276872 9.007730076778444 50.00000000000001
264 1 2 -0.42 29.277538459162244 8.89652353273189 50.00000000000001
265 1 1 0.42 28.603384615883773 10.175398790434906 50.00000000000001
266 1 2 -0.42 31.492615382277293 10.064192246388357 50.00000000000001
267 1 1 0.42 30.81846153899883 11.343067504091373 50.00000000000001
268 1 2 -0.42 33.70769230539236 11.23186096004482 50.00000000000001
269 1 1 0.42 33.03353846211387 12.510736217747839 50.00000000000001
270 1 2 -0.42 35.9227692285074 12.399529673701286 50.00000000000001
271 1 1 0.42 35.24861538522894 13.6784049314043 50.00000000000001
272 1 2 -0.42 38.13784615162246 13.567198387357747 50.00000000000001
273 1 1 0.42 37.46369230834398 14.846073645060764 50.00000000000001
274 1 2 -0.42 40.352923074737504 14.734867101014212 50.00000000000001
275 1 1 0.42 39.678769231459036 16.01374235871723 50.00000000000001
276 1 2 -0.42 10.01599999726851 15.902535814670683 50.00000000000001
277 1 1 0.42 41.8938461545741 17.181411072373695 50.00000000000001
278 1 2 -0.42 12.231076920383567 17.070204528327146 50.00000000000001
279 1 1 0.42 15.216615384887481 0.6672392649465506 50.00000000000001
280 1 2 -0.42 18.105846151281007 0.5560327208999984 50.00000000000001
281 1 1 0.42 17.43169230800254 1.834907978603015 50.00000000000001
282 1 2 -0.42 20.32092307439607 1.723701434556463 50.00000000000001
283 1 1 0.42 19.646769231117588 3.00257669225948 50.00000000000001
284 1 2 -0.42 22.53599999751112 2.8913701482129275 50.00000000000001
285 1 1 0.42 21.861846154232637 4.170245405915946 50.00000000000001
286 1 2 -0.42 24.751076920626172 4.059038861869394 50.00000000000001
287 1 1 0.42 24.0769230773477 5.33791411957241 50.00000000000001
288 1 2 -0.42 26.966153843741225 5.226707575525859 50.00000000000001
289 1 1 0.42 26.29200000046275 6.505582833228874 50.00000000000001
290 1 2 -0.42 29.18123076685628 6.394376289182322 50.00000000000001
291 1 1 0.42 28.507076923577802 7.673251546885342 50.00000000000001
292 1 2 -0.42 31.39630768997134 7.562045002838789 50.00000000000001
293 1 1 0.42 30.72215384669285 8.840920260541804 50.00000000000001
294 1 2 -0.42 33.611384613086386 8.729713716495255 50.00000000000001
295 1 1 0.42 32.93723076980791 10.008588974198268 50.00000000000001
296 1 2 -0.42 35.826461536201435 9.897382430151717 50.00000000000001
297 1 1 0.42 35.152307692922975 11.176257687854736 50.00000000000001
298 1 2 -0.42 38.0415384593165 11.065051143808182 50.00000000000001
299 1 1 0.42 37.36738461603802 12.3439264015112 50.00000000000001
300 1 2 -0.42 7.704615381847491 12.232719857464646 50.00000000000001
301 1 1 0.42 39.582461539153066 13.511595115167664 50.00000000000001
302 1 2 -0.42 9.919692304962547 13.400388571121114 50.00000000000001
303 1 1 0.42 19.55046153881163 0.5004294487099117 50.00000000000001
304 1 2 -0.42 22.439692305205163 0.38922290466335946 50.00000000000001
305 1 1 0.42 21.765538461926678 1.6680981623663773 50.00000000000001
306 1 2 -0.42 24.654769228320205 1.5568916183198247 50.00000000000001
307 1 1 0.42 23.980615385041734 2.835766876022842 50.00000000000001
308 1 2 -0.42 26.86984615143526 2.7245603319762894 50.00000000000001
309 1 1 0.42 26.195692308156783 4.003435589679307 50.00000000000001
310 1 2 -0.42 29.084923074550318 3.8922290456327553 50.00000000000001
311 1 1 0.42 28.41076923127184 5.171104303335772 50.00000000000001
312 1 2 -0.42 31.299999997665367 5.059897759289219 50.00000000000001
313 1 1 0.42 30.625846154386895 6.338773016992235 50.00000000000001
314 1 2 -0.42 33.51507692078042 6.227566472945686 50.00000000000001
315 1 1 0.42 32.84092307750195 7.5064417306486995 50.00000000000001
316 1 2 -0.42 35.73015384389548 7.3952351866021475 50.00000000000001
317 1 1 0.42 35.05600000061699 8.674110444305166 50.00000000000001
318 1 2 -0.42 5.393230766426471 8.562903900258613 50.00000000000001
319 1 1 0.42 37.27107692373205 9.841779157961634 50.00000000000001
320 1 2 -0.42 7.608307689541527 9.73057261391508 50.00000000000001
321 1 1 0.42 23.88430769273576 0.33361963247327353 50.00000000000001
322 1 2 -0.42 26.7735384591293 0.22241308842672147 50.00000000000001
323 1 1 0.42 26.099384615850823 1.5012883461297382 50.00000000000001
324 1 2 -0.42 28.988615382244344 1.3900818020831862 50.00000000000001
325 1 1 0.42 28.31446153896588 2.6689570597862033 50.00000000000001
326 1 2 -0.42 31.203692305359404 2.557750515739651 50.00000000000001
327 1 1 0.42 30.529538462080925 3.836625773442667 50.00000000000001
328 1 2 -0.42 33.41876922847446 3.7254192293961164 50.00000000000001
329 1 1 0.42 32.74461538519598 5.004294487099133 50.00000000000001
330 1 2 -0.42 3.0818461510054598 4.893087943052582 50.00000000000001
331 1 1 0.42 34.959692308311034 6.171963200755597 50.00000000000001
332 1 2 -0.42 5.296923074120507 6.060756656709046 50.00000000000001
333 1 1 0.42 28.218153846659902 0.1668098162366363 50.00000000000001
334 1 2 -0.42 31.10738461305344 0.05560327219008403 50.00000000000001
335 1 1 0.42 30.433230769774962 1.3344785298931012 50.00000000000001
336 1 2 -0.42 0.7704615355844411 1.22327198584655 50.00000000000001
337 1 1 0.42 32.64830769289002 2.502147243549565 50.00000000000001
338 1 2 -0.42 2.9855384586994953 2.3909406995030147 50.00000000000001
339 2 3 0.42 14.253538461794195 24.35423317056882 53.30000000000002
340 2 4 -0.42 17.142769228187575 24.46543971461936 53.30000000000002
341 2 3 0.42 16.37230769260144 25.688711700464843 53.30000000000002
342 2 4 -0.42 19.261538458994817 25.799918244515386 53.30000000000002
343 2 3 0.42 18.491076923408688 27.02319023036087 53.30000000000002
344 2 4 -0.42 21.380307689802066 27.134396774411414 53.30000000000002
345 2 3 0.42 12.231076923296369 20.51760739712335 53.30000000000002
346 2 4 -0.42 15.120307689689747 20.628813941173892 53.30000000000002
347 2 3 0.42 14.349846154103616 21.852085927019377 53.30000000000002
348 2 4 -0.42 17.239076920496995 21.96329247106992 53.30000000000002
349 2 3 0.42 16.468615384910862 23.18656445691541 53.30000000000002
350 2 4 -0.42 19.35784615130424 23.29777100096596 53.30000000000002
351 2 3 0.42 18.587384615718108 24.52104298681144 53.30000000000002
352 2 4 -0.42 21.476615382111486 24.632249530861987 53.30000000000002
353 2 3 0.42 20.706153846525353 25.855521516707462 53.30000000000002
354 2 4 -0.42 23.595384612918732 25.96672806075801 53.30000000000002
355 2 3 0.42 22.8249230773326 27.190000046603494 53.30000000000002
356 2 4 -0.42 25.714153843725978 27.30120659065404 53.30000000000002
357 2 3 0.42 10.208615384798545 16.680981623677887 53.30000000000002
358 2 4 -0.42 13.097846151191924 16.792188167728437 53.30000000000002
359 2 3 0.42 12.32738461560579 18.015460153573915 53.30000000000002
360 2 4 -0.42 15.216615381999171 18.12666669762446 53.30000000000002
361 2 3 0.42 14.446153846413036 19.34993868346994 53.30000000000002
362 2 4 -0.42 17.335384612806415 19.46114522752049 53.30000000000002
363 2 3 0.42 16.564923077220282 20.68441721336597 53.30000000000002
364 2 4 -0.42 19.454153843613664 20.795623757416514 53.30000000000002
365 2 3 0.42 18.683692308027528 22.018895743262004 53.30000000000002
366 2 4 -0.42 21.572923074420906 22.130102287312543 53.30000000000002
367 2 3 0.42 20.802461538834777 23.353374273158035 53.30000000000002
368 2 4 -0.42 23.691692305228155 23.46458081720858 53.30000000000002
369 2 3 0.42 22.92123076964202 24.687852803054064 53.30000000000002
370 2 4 -0.42 25.810461536035398 24.799059347104603 53.30000000000002
371 2 3 0.42 25.040000000449265 26.022331332950092 53.30000000000002
372 2 4 -0.42 27.929230766842643 26.133537877000638 53.30000000000002
373 2 3 0.42 27.15876923125651 27.35680986284612 53.30000000000002
374 2 4 -0.42 30.04799999764989 27.46801640689667 53.30000000000002
375 2 3 0.42 8.18615384630072 12.844355850232422 53.30000000000002
376 2 4 -0.42 11.075384612694098 12.955562394282964 53.30000000000002
377 2 3 0.42 10.304923077107967 14.178834380128452 53.30000000000002
378 2 4 -0.42 13.194153843501345 14.290040924178992 53.30000000000002
379 2 3 0.42 12.423692307915212 15.513312910024483 53.30000000000002
380 2 4 -0.42 15.312923074308591 15.624519454075028 53.30000000000002
381 2 3 0.42 14.542461538722456 16.847791439920506 53.30000000000002
382 2 4 -0.42 17.431692305115835 16.958997983971056 53.30000000000002
383 2 3 0.42 16.661230769529702 18.18226996981654 53.30000000000002
384 2 4 -0.42 19.550461535923084 18.293476513867084 53.30000000000002
385 2 3 0.42 18.78000000033695 19.516748499712573 53.30000000000002
386 2 4 -0.42 21.66923076673033 19.627955043763112 53.30000000000002
387 2 3 0.42 20.898769231144197 20.851227029608594 53.30000000000002
388 2 4 -0.42 23.78799999753758 20.962433573659144 53.30000000000002
389 2 3 0.42 23.017538461951442 22.185705559504626 53.30000000000002
390 2 4 -0.42 25.90676922834482 22.29691210355517 53.30000000000002
391 2 3 0.42 25.136307692758685 23.520184089400654 53.30000000000002
392 2 4 -0.42 28.025538459152067 23.6313906334512 53.30000000000002
393 2 3 0.42 27.255076923565934 24.854662619296686 53.30000000000002
394 2 4 -0.42 30.14430768995931 24.96586916334723 53.30000000000002
395 2 3 0.42 29.373846154373183 26.189141149192718 53.30000000000002
396 2 4 -0.42 32.26307692076656 26.30034769324326 53.30000000000002
397 2 3 0.42 31.492615385180425 27.52361967908875 53.30000000000002
398 2 4 -0.42 34.3818461515738 27.634826223139292 53.30000000000002
399 2 3 0.42 6.163692307802895 9.007730076786958 53.30000000000002
400 2 4 -0.42 9.052923074196274 9.118936620837502 53.30000000000002
401 2 3 0.42 8.282461538610141 10.342208606682984 53.30000000000002
402 2 4 -0.42 11.171692305003521 10.45341515073353 53.30000000000002
403 2 3 0.42 10.401230769417388 11.676687136579018 53.30000000000002
404 2 4 -0.42 13.290461535810767 11.78789368062956 53.30000000000002
405 2 3 0.42 12.520000000224632 13.011165666475046 53.30000000000002
406 2 4 -0.42 15.40923076661801 13.12237221052559 53.30000000000002
407 2 3 0.42 14.638769231031878 14.345644196371074 53.30000000000002
408 2 4 -0.42 17.527999997425255 14.456850740421615 53.30000000000002
409 2 3 0.42 16.757538461839125 15.680122726267104 53.30000000000002
410 2 4 -0.42 19.646769228232504 15.791329270317648 53.30000000000002
411 2 3 0.42 18.87630769264637 17.014601256163132 53.30000000000002
412 2 4 -0.42 21.765538459039746 17.125807800213682 53.30000000000002
413 2 3 0.42 20.995076923453617 18.349079786059168 53.30000000000002
414 2 4 -0.42 23.884307689846995 18.46028633010971 53.30000000000002
415 2 3 0.42 23.11384615426086 19.6835583159552 53.30000000000002
416 2 4 -0.42 26.00307692065424 19.79476486000574 53.30000000000002
417 2 3 0.42 25.232615385068108 21.018036845851224 53.30000000000002
418 2 4 -0.42 28.121846151461487 21.129243389901767 53.30000000000002
419 2 3 0.42 27.351384615875354 22.352515375747252 53.30000000000002
420 2 4 -0.42 30.24061538226873 22.46372191979779 53.30000000000002
421 2 3 0.42 29.470153846682596 23.686993905643277 53.30000000000002
422 2 4 -0.42 32.359384613075974 23.798200449693827 53.30000000000002
423 2 3 0.42 31.58892307748985 25.02147243553931 53.30000000000002
424 2 4 -0.42 34.47815384388323 25.132678979589855 53.30000000000002
425 2 3 0.42 33.70769230829709 26.35595096543534 53.30000000000002
426 2 4 -0.42 36.596923074690466 26.467157509485887 53.30000000000002
427 2 3 0.42 35.826461539104336 27.69042949533137 53.30000000000002
428 2 4 -0.42 38.71569230549772 27.801636039381915 53.30000000000002
429 2 3 0.42 4.1412307693050705 5.171104303341492 53.30000000000002
430 2 4 -0.42 7.030461535698451 5.282310847392036 53.30000000000002
431 2 3 0.42 6.260000000112316 6.505582833237523 53.30000000000002
432 2 4 -0.42 9.149230766505696 6.616789377288066 53.30000000000002
433 2 3 0.42 8.378769230919563 7.840061363133552 53.30000000000002
434 2 4 -0.42 11.267999997312941 7.951267907184093 53.30000000000002
435 2 3 0.42 10.497538461726808 9.174539893029584 53.30000000000002
436 2 4 -0.42 13.386769228120185 9.285746437080126 53.30000000000002