ITEM: TIMESTEP
0
ITEM: NUMBER OF ATOMS
3603
ITEM: BOX BOUNDS xy xz yz pp pp pp
0.0000000000000000e+00 1.1808000000000000e+02 3.9359999999999999e+01
0.0000000000000000e+00 6.8173519787136001e+01 0.0000000000000000e+00
0.0000000000000000e+00 3.5000000000000000e+01 0.0000000000000000e+00
ITEM: ATOMS id type x y z
1 1 0 0 5.88952
2 2 3.28 1.89371 4.34441
3 3 3.28 1.89371 7.43464
4 1 1.64 2.84056 5.88952
5 2 4.92 4.73427 4.34441
6 3 4.92 4.73427 7.43464
7 1 3.28 5.68113 5.88952
8 2 6.56 7.57484 4.34441
9 3 6.56 7.57484 7.43464
73 1 3.28 0 5.88952
74 2 6.56 1.89371 4.34441
75 3 6.56 1.89371 7.43464
76 1 4.92 2.84056 5.88952
79 1 6.56 5.68113 5.88952
145 1 6.56 0 5.88952
77 2 8.2 4.73427 4.34441
78 3 8.2 4.73427 7.43464
80 2 9.84 7.57484 4.34441
81 3 9.84 7.57484 7.43464
146 2 9.84 1.89371 4.34441
147 3 9.84 1.89371 7.43464
148 1 8.2 2.84056 5.88952
149 2 11.48 4.73427 4.34441
150 3 11.48 4.73427 7.43464
151 1 9.84 5.68113 5.88952
152 2 13.12 7.57484 4.34441
153 3 13.12 7.57484 7.43464
217 1 9.84 0 5.88952
218 2 13.12 1.89371 4.34441
219 3 13.12 1.89371 7.43464
220 1 11.48 2.84056 5.88952
221 2 14.76 4.73427 4.34441
222 3 14.76 4.73427 7.43464
223 1 13.12 5.68113 5.88952
289 1 13.12 0 5.88952
224 2 16.4 7.57484 4.34441
225 3 16.4 7.57484 7.43464
290 2 16.4 1.89371 4.34441
291 3 16.4 1.89371 7.43464
292 1 14.76 2.84056 5.88952
293 2 18.04 4.73427 4.34441
294 3 18.04 4.73427 7.43464
295 1 16.4 5.68113 5.88952
296 2 19.68 7.57484 4.34441
297 3 19.68 7.57484 7.43464
361 1 16.4 0 5.88952
362 2 19.68 1.89371 4.34441
363 3 19.68 1.89371 7.43464
364 1 18.04 2.84056 5.88952
365 2 21.32 4.73427 4.34441
366 3 21.32 4.73427 7.43464
367 1 19.68 5.68113 5.88952
433 1 19.68 0 5.88952
436 1 21.32 2.84056 5.88952
368 2 22.96 7.57484 4.34441
369 3 22.96 7.57484 7.43464
434 2 22.96 1.89371 4.34441
435 3 22.96 1.89371 7.43464
437 2 24.6 4.73427 4.34441
438 3 24.6 4.73427 7.43464
439 1 22.96 5.68113 5.88952
440 2 26.24 7.57484 4.34441
441 3 26.24 7.57484 7.43464
505 1 22.96 0 5.88952
506 2 26.24 1.89371 4.34441
507 3 26.24 1.89371 7.43464
508 1 24.6 2.84056 5.88952
509 2 27.88 4.73427 4.34441
510 3 27.88 4.73427 7.43464
511 1 26.24 5.68113 5.88952
512 2 29.52 7.57484 4.34441
513 3 29.52 7.57484 7.43464
577 1 26.24 0 5.88952
578 2 29.52 1.89371 4.34441
579 3 29.52 1.89371 7.43464
580 1 27.88 2.84056 5.88952
581 2 31.16 4.73427 4.34441
582 3 31.16 4.73427 7.43464
583 1 29.52 5.68113 5.88952
584 2 32.8 7.57484 4.34441
585 3 32.8 7.57484 7.43464
649 1 29.52 0 5.88952
650 2 32.8 1.89371 4.34441
651 3 32.8 1.89371 7.43464
652 1 31.16 2.84056 5.88952
653 2 34.44 4.73427 4.34441
654 3 34.44 4.73427 7.43464
655 1 32.8 5.68113 5.88952
656 2 36.08 7.57484 4.34441
657 3 36.08 7.57484 7.43464
721 1 32.8 0 5.88952
722 2 36.08 1.89371 4.34441
723 3 36.08 1.89371 7.43464
724 1 34.44 2.84056 5.88952
727 1 36.08 5.68113 5.88952
793 1 36.08 0 5.88952
725 2 37.72 4.73427 4.34441
726 3 37.72 4.73427 7.43464
728 2 39.36 7.57484 4.34441
729 3 39.36 7.57484 7.43464
794 2 39.36 1.89371 4.34441
795 3 39.36 1.89371 7.43464
796 1 37.72 2.84056 5.88952
797 2 41 4.73427 4.34441
798 3 41 4.73427 7.43464
799 1 39.36 5.68113 5.88952
800 2 42.64 7.57484 4.34441
801 3 42.64 7.57484 7.43464
865 1 39.36 0 5.88952
866 2 42.64 1.89371 4.34441
867 3 42.64 1.89371 7.43464
868 1 41 2.84056 5.88952
869 2 44.28 4.73427 4.34441
870 3 44.28 4.73427 7.43464
871 1 42.64 5.68113 5.88952
937 1 42.64 0 5.88952
940 1 44.28 2.84056 5.88952
872 2 45.92 7.57484 4.34441
873 3 45.92 7.57484 7.43464
938 2 45.92 1.89371 4.34441
939 3 45.92 1.89371 7.43464
941 2 47.56 4.73427 4.34441
942 3 47.56 4.73427 7.43464
943 1 45.92 5.68113 5.88952
944 2 49.2 7.57484 4.34441
945 3 49.2 7.57484 7.43464
1009 1 45.92 0 5.88952
1010 2 49.2 1.89371 4.34441
1011 3 49.2 1.89371 7.43464
1012 1 47.56 2.84056 5.88952
1013 2 50.84 4.73427 4.34441
1014 3 50.84 4.73427 7.43464
1015 1 49.2 5.68113 5.88952
1081 1 49.2 0 5.88952
1084 1 50.84 2.84056 5.88952
1016 2 52.48 7.57484 4.34441
1017 3 52.48 7.57484 7.43464
1082 2 52.48 1.89371 4.34441
1083 3 52.48 1.89371 7.43464
1085 2 54.12 4.73427 4.34441
1086 3 54.12 4.73427 7.43464
1087 1 52.48 5.68113 5.88952
1088 2 55.76 7.57484 4.34441
1089 3 55.76 7.57484 7.43464
1153 1 52.48 0 5.88952
1154 2 55.76 1.89371 4.34441
1155 3 55.76 1.89371 7.43464
1156 1 54.12 2.84056 5.88952
1157 2 57.4 4.73427 4.34441
1158 3 57.4 4.73427 7.43464
1159 1 55.76 5.68113 5.88952
1160 2 59.04 7.57484 4.34441
1161 3 59.04 7.57484 7.43464
1225 1 55.76 0 5.88952
1226 2 59.04 1.89371 4.34441
1227 3 59.04 1.89371 7.43464
1228 1 57.4 2.84056 5.88952
1231 1 59.04 5.68113 5.88952
1229 2 60.68 4.73427 4.34441
1230 3 60.68 4.73427 7.43464
1232 2 62.32 7.57484 4.34441
1233 3 62.32 7.57484 7.43464
1297 1 59.04 0 5.88952
1298 2 62.32 1.89371 4.34441
1299 3 62.32 1.89371 7.43464
1300 1 60.68 2.84056 5.88952
1301 2 63.96 4.73427 4.34441
1302 3 63.96 4.73427 7.43464
1303 1 62.32 5.68113 5.88952
1304 2 65.6 7.57484 4.34441
1305 3 65.6 7.57484 7.43464
1369 1 62.32 0 5.88952
1370 2 65.6 1.89371 4.34441
1371 3 65.6 1.89371 7.43464
1372 1 63.96 2.84056 5.88952
1375 1 65.6 5.68113 5.88952
1441 1 65.6 0 5.88952
1373 2 67.24 4.73427 4.34441
1374 3 67.24 4.73427 7.43464
1376 2 68.88 7.57484 4.34441
1377 3 68.88 7.57484 7.43464
1442 2 68.88 1.89371 4.34441
1443 3 68.88 1.89371 7.43464
1444 1 67.24 2.84056 5.88952
1445 2 70.52 4.73427 4.34441
1446 3 70.52 4.73427 7.43464
1447 1 68.88 5.68113 5.88952
1448 2 72.16 7.57484 4.34441
1449 3 72.16 7.57484 7.43464
1513 1 68.88 0 5.88952
1514 2 72.16 1.89371 4.34441
1515 3 72.16 1.89371 7.43464
1516 1 70.52 2.84056 5.88952
1517 2 73.8 4.73427 4.34441
1518 3 73.8 4.73427 7.43464
1519 1 72.16 5.68113 5.88952
1585 1 72.16 0 5.88952
1520 2 75.44 7.57484 4.34441
1521 3 75.44 7.57484 7.43464
1586 2 75.44 1.89371 4.34441
1587 3 75.44 1.89371 7.43464
1588 1 73.8 2.84056 5.88952
1589 2 77.08 4.73427 4.34441
1590 3 77.08 4.73427 7.43464
1591 1 75.44 5.68113 5.88952
1592 2 78.72 7.57484 4.34441
1593 3 78.72 7.57484 7.43464
1657 1 75.44 0 5.88952
1658 2 78.72 1.89371 4.34441
1659 3 78.72 1.89371 7.43464
1660 1 77.08 2.84056 5.88952
1661 2 80.36 4.73427 4.34441
1662 3 80.36 4.73427 7.43464
1663 1 78.72 5.68113 5.88952
1664 2 82 7.57484 4.34441
1665 3 82 7.57484 7.43464
10 1 4.92 8.52169 5.88952
13 1 6.56 11.3623 5.88952
11 2 8.2 10.4154 4.34441
12 3 8.2 10.4154 7.43464
14 2 9.84 13.256 4.34441
15 3 9.84 13.256 7.43464
16 1 8.2 14.2028 5.88952
82 1 8.2 8.52169 5.88952
83 2 11.48 10.4154 4.34441
84 3 11.48 10.4154 7.43464
85 1 9.84 11.3623 5.88952
86 2 13.12 13.256 4.34441
87 3 13.12 13.256 7.43464
88 1 11.48 14.2028 5.88952
154 1 11.48 8.52169 5.88952
155 2 14.76 10.4154 4.34441
156 3 14.76 10.4154 7.43464
157 1 13.12 11.3623 5.88952
158 2 16.4 13.256 4.34441
159 3 16.4 13.256 7.43464
160 1 14.76 14.2028 5.88952
226 1 14.76 8.52169 5.88952
227 2 18.04 10.4154 4.34441
228 3 18.04 10.4154 7.43464
229 1 16.4 11.3623 5.88952
230 2 19.68 13.256 4.34441
231 3 19.68 13.256 7.43464
232 1 18.04 14.2028 5.88952
298 1 18.04 8.52169 5.88952
299 2 21.32 10.4154 4.34441
300 3 21.32 10.4154 7.43464
301 1 19.68 11.3623 5.88952
304 1 21.32 14.2028 5.88952
370 1 21.32 8.52169 5.88952
302 2 22.96 13.256 4.34441
303 3 22.96 13.256 7.43464
371 2 24.6 10.4154 4.34441
372 3 24.6 10.4154 7.43464
373 1 22.96 11.3623 5.88952
374 2 26.24 13.256 4.34441
375 3 26.24 13.256 7.43464
376 1 24.6 14.2028 5.88952
442 1 24.6 8.52169 5.88952
443 2 27.88 10.4154 4.34441
444 3 27.88 10.4154 7.43464
445 1 26.24 11.3623 5.88952
446 2 29.52 13.256 4.34441
447 3 29.52 13.256 7.43464
448 1 27.88 14.2028 5.88952
514 1 27.88 8.52169 5.88952
515 2 31.16 10.4154 4.34441
516 3 31.16 10.4154 7.43464
517 1 29.52 11.3623 5.88952
518 2 32.8 13.256 4.34441
519 3 32.8 13.256 7.43464
520 1 31.16 14.2028 5.88952
586 1 31.16 8.52169 5.88952
587 2 34.44 10.4154 4.34441
588 3 34.44 10.4154 7.43464
589 1 32.8 11.3623 5.88952
590 2 36.08 13.256 4.34441
591 3 36.08 13.256 7.43464
592 1 34.44 14.2028 5.88952
658 1 34.44 8.52169 5.88952
661 1 36.08 11.3623 5.88952
659 2 37.72 10.4154 4.34441
660 3 37.72 10.4154 7.43464
662 2 39.36 13.256 4.34441
663 3 39.36 13.256 7.43464
664 1 37.72 14.2028 5.88952
730 1 37.72 8.52169 5.88952
731 2 41 10.4154 4.34441
732 3 41 10.4154 7.43464
733 1 39.36 11.3623 5.88952
734 2 42.64 13.256 4.34441
735 3 42.64 13.256 7.43464
736 1 41 14.2028 5.88952
802 1 41 8.52169 5.88952
803 2 44.28 10.4154 4.34441
804 3 44.28 10.4154 7.43464
805 1 42.64 11.3623 5.88952
806 2 45.92 13.256 4.34441
807 3 45.92 13.256 7.43464
808 1 44.28 14.2028 5.88952
874 1 44.28 8.52169 5.88952
875 2 47.56 10.4154 4.34441
876 3 47.56 10.4154 7.43464
877 1 45.92 11.3623 5.88952
878 2 49.2 13.256 4.34441
879 3 49.2 13.256 7.43464
880 1 47.56 14.2028 5.88952
946 1 47.56 8.52169 5.88952
947 2 50.84 10.4154 4.34441
948 3 50.84 10.4154 7.43464
949 1 49.2 11.3623 5.88952
952 1 50.84 14.2028 5.88952
1018 1 50.84 8.52169 5.88952
950 2 52.48 13.256 4.34441
951 3 52.48 13.256 7.43464
1019 2 54.12 10.4154 4.34441
1020 3 54.12 10.4154 7.43464
1021 1 52.48 11.3623 5.88952
1022 2 55.76 13.256 4.34441
1023 3 55.76 13.256 7.43464
1024 1 54.12 14.2028 5.88952
1090 1 54.12 8.52169 5.88952
1091 2 57.4 10.4154 4.34441
1092 3 57.4 10.4154 7.43464
1093 1 55.76 11.3623 5.88952
1094 2 59.04 13.256 4.34441
1095 3 59.04 13.256 7.43464
1096 1 57.4 14.2028 5.88952
1162 1 57.4 8.52169 5.88952
1163 2 60.68 10.4154 4.34441
1164 3 60.68 10.4154 7.43464
1165 1 59.04 11.3623 5.88952
1166 2 62.32 13.256 4.34441
1167 3 62.32 13.256 7.43464
1168 1 60.68 14.2028 5.88952
1234 1 60.68 8.52169 5.88952
1235 2 63.96 10.4154 4.34441
1236 3 63.96 10.4154 7.43464
1237 1 62.32 11.3623 5.88952
1238 2 65.6 13.256 4.34441
1239 3 65.6 13.256 7.43464
1240 1 63.96 14.2028 5.88952
1306 1 63.96 8.52169 5.88952
1309 1 65.6 11.3623 5.88952
1307 2 67.24 10.4154 4.34441
1308 3 67.24 10.4154 7.43464
1310 2 68.88 13.256 4.34441
1311 3 68.88 13.256 7.43464
1312 1 67.24 14.2028 5.88952
1378 1 67.24 8.52169 5.88952
1379 2 70.52 10.4154 4.34441
1380 3 70.52 10.4154 7.43464
1381 1 68.88 11.3623 5.88952
1382 2 72.16 13.256 4.34441
1383 3 72.16 13.256 7.43464
1384 1 70.52 14.2028 5.88952
1450 1 70.52 8.52169 5.88952
1451 2 73.8 10.4154 4.34441
1452 3 73.8 10.4154 7.43464
1453 1 72.16 11.3623 5.88952
1454 2 75.44 13.256 4.34441
1455 3 75.44 13.256 7.43464
1456 1 73.8 14.2028 5.88952
1522 1 73.8 8.52169 5.88952
1523 2 77.08 10.4154 4.34441
1524 3 77.08 10.4154 7.43464
1525 1 75.44 11.3623 5.88952
1526 2 78.72 13.256 4.34441
1527 3 78.72 13.256 7.43464
1528 1 77.08 14.2028 5.88952
1594 1 77.08 8.52169 5.88952
1595 2 80.36 10.4154 4.34441
1596 3 80.36 10.4154 7.43464
1597 1 78.72 11.3623 5.88952
1600 1 80.36 14.2028 5.88952
1666 1 80.36 8.52169 5.88952
1598 2 82 13.256 4.34441
1599 3 82 13.256 7.43464
1667 2 83.64 10.4154 4.34441
1668 3 83.64 10.4154 7.43464
1669 1 82 11.3623 5.88952
1670 2 85.28 13.256 4.34441
1671 3 85.28 13.256 7.43464
1672 1 83.64 14.2028 5.88952
17 2 11.48 16.0965 4.34441
18 3 11.48 16.0965 7.43464
19 1 9.84 17.0434 5.88952
20 2 13.12 18.9371 4.34441
21 3 13.12 18.9371 7.43464
22 1 11.48 19.8839 5.88952
23 2 14.76 21.7777 4.34441
24 3 14.76 21.7777 7.43464
89 2 14.76 16.0965 4.34441
90 3 14.76 16.0965 7.43464
91 1 13.12 17.0434 5.88952
92 2 16.4 18.9371 4.34441
93 3 16.4 18.9371 7.43464
94 1 14.76 19.8839 5.88952
95 2 18.04 21.7777 4.34441
96 3 18.04 21.7777 7.43464
161 2 18.04 16.0965 4.34441
162 3 18.04 16.0965 7.43464
163 1 16.4 17.0434 5.88952
164 2 19.68 18.9371 4.34441
165 3 19.68 18.9371 7.43464
166 1 18.04 19.8839 5.88952
167 2 21.32 21.7777 4.34441
168 3 21.32 21.7777 7.43464
233 2 21.32 16.0965 4.34441
234 3 21.32 16.0965 7.43464
235 1 19.68 17.0434 5.88952
238 1 21.32 19.8839 5.88952
236 2 22.96 18.9371 4.34441
237 3 22.96 18.9371 7.43464
239 2 24.6 21.7777 4.34441
240 3 24.6 21.7777 7.43464
305 2 24.6 16.0965 4.34441
306 3 24.6 16.0965 7.43464
307 1 22.96 17.0434 5.88952
308 2 26.24 18.9371 4.34441
309 3 26.24 18.9371 7.43464
310 1 24.6 19.8839 5.88952
311 2 27.88 21.7777 4.34441
312 3 27.88 21.7777 7.43464
377 2 27.88 16.0965 4.34441
378 3 27.88 16.0965 7.43464
379 1 26.24 17.0434 5.88952
380 2 29.52 18.9371 4.34441
381 3 29.52 18.9371 7.43464
382 1 27.88 19.8839 5.88952
383 2 31.16 21.7777 4.34441
384 3 31.16 21.7777 7.43464
449 2 31.16 16.0965 4.34441
450 3 31.16 16.0965 7.43464
451 1 29.52 17.0434 5.88952
452 2 32.8 18.9371 4.34441
453 3 32.8 18.9371 7.43464
454 1 31.16 19.8839 5.88952
455 2 34.44 21.7777 4.34441
456 3 34.44 21.7777 7.43464
521 2 34.44 16.0965 4.34441
522 3 34.44 16.0965 7.43464
523 1 32.8 17.0434 5.88952
524 2 36.08 18.9371 4.34441
525 3 36.08 18.9371 7.43464
526 1 34.44 19.8839 5.88952
595 1 36.08 17.0434 5.88952
527 2 37.72 21.7777 4.34441
528 3 37.72 21.7777 7.43464
593 2 37.72 16.0965 4.34441
594 3 37.72 16.0965 7.43464
596 2 39.36 18.9371 4.34441
597 3 39.36 18.9371 7.43464
598 1 37.72 19.8839 5.88952
599 2 41 21.7777 4.34441
600 3 41 21.7777 7.43464
665 2 41 16.0965 4.34441
666 3 41 16.0965 7.43464
667 1 39.36 17.0434 5.88952
668 2 42.64 18.9371 4.34441
669 3 42.64 18.9371 7.43464
670 1 41 19.8839 5.88952
671 2 44.28 21.7777 4.34441
672 3 44.28 21.7777 7.43464
737 2 44.28 16.0965 4.34441
738 3 44.28 16.0965 7.43464
739 1 42.64 17.0434 5.88952
740 2 45.92 18.9371 4.34441
741 3 45.92 18.9371 7.43464
742 1 44.28 19.8839 5.88952
743 2 47.56 21.7777 4.34441
744 3 47.56 21.7777 7.43464
809 2 47.56 16.0965 4.34441
810 3 47.56 16.0965 7.43464
811 1 45.92 17.0434 5.88952
812 2 49.2 18.9371 4.34441
813 3 49.2 18.9371 7.43464
814 1 47.56 19.8839 5.88952
815 2 50.84 21.7777 4.34441
816 3 50.84 21.7777 7.43464
881 2 50.84 16.0965 4.34441
882 3 50.84 16.0965 7.43464
883 1 49.2 17.0434 5.88952
886 1 50.84 19.8839 5.88952
884 2 52.48 18.9371 4.34441
885 3 52.48 18.9371 7.43464
887 2 54.12 21.7777 4.34441
888 3 54.12 21.7777 7.43464
953 2 54.12 16.0965 4.34441
954 3 54.12 16.0965 7.43464
955 1 52.48 17.0434 5.88952
956 2 55.76 18.9371 4.34441
957 3 55.76 18.9371 7.43464
958 1 54.12 19.8839 5.88952
959 2 57.4 21.7777 4.34441
960 3 57.4 21.7777 7.43464
1025 2 57.4 16.0965 4.34441
1026 3 57.4 16.0965 7.43464
1027 1 55.76 17.0434 5.88952
1028 2 59.04 18.9371 4.34441
1029 3 59.04 18.9371 7.43464
1030 1 57.4 19.8839 5.88952
1031 2 60.68 21.7777 4.34441
1032 3 60.68 21.7777 7.43464
1097 2 60.68 16.0965 4.34441
1098 3 60.68 16.0965 7.43464
1099 1 59.04 17.0434 5.88952
1100 2 62.32 18.9371 4.34441
1101 3 62.32 18.9371 7.43464
1102 1 60.68 19.8839 5.88952
1103 2 63.96 21.7777 4.34441
1104 3 63.96 21.7777 7.43464
1169 2 63.96 16.0965 4.34441
1170 3 63.96 16.0965 7.43464
1171 1 62.32 17.0434 5.88952
1172 2 65.6 18.9371 4.34441
1173 3 65.6 18.9371 7.43464
1174 1 63.96 19.8839 5.88952
1243 1 65.6 17.0434 5.88952
1175 2 67.24 21.7777 4.34441
1176 3 67.24 21.7777 7.43464
1241 2 67.24 16.0965 4.34441
1242 3 67.24 16.0965 7.43464
1244 2 68.88 18.9371 4.34441
1245 3 68.88 18.9371 7.43464
1246 1 67.24 19.8839 5.88952
1247 2 70.52 21.7777 4.34441
1248 3 70.52 21.7777 7.43464
1313 2 70.52 16.0965 4.34441
1314 3 70.52 16.0965 7.43464
1315 1 68.88 17.0434 5.88952
1316 2 72.16 18.9371 4.34441
1317 3 72.16 18.9371 7.43464
1318 1 70.52 19.8839 5.88952
1319 2 73.8 21.7777 4.34441
1320 3 73.8 21.7777 7.43464
1385 2 73.8 16.0965 4.34441
1386 3 73.8 16.0965 7.43464
1387 1 72.16 17.0434 5.88952
1388 2 75.44 18.9371 4.34441
1389 3 75.44 18.9371 7.43464
1390 1 73.8 19.8839 5.88952
1391 2 77.08 21.7777 4.34441
1392 3 77.08 21.7777 7.43464
1457 2 77.08 16.0965 4.34441
1458 3 77.08 16.0965 7.43464
1459 1 75.44 17.0434 5.88952
1460 2 78.72 18.9371 4.34441
1461 3 78.72 18.9371 7.43464
1462 1 77.08 19.8839 5.88952
1463 2 80.36 21.7777 4.34441
1464 3 80.36 21.7777 7.43464
1529 2 80.36 16.0965 4.34441
1530 3 80.36 16.0965 7.43464
1531 1 78.72 17.0434 5.88952
1534 1 80.36 19.8839 5.88952
1532 2 82 18.9371 4.34441
1533 3 82 18.9371 7.43464
1535 2 83.64 21.7777 4.34441
1536 3 83.64 21.7777 7.43464
1601 2 83.64 16.0965 4.34441
1602 3 83.64 16.0965 7.43464
1603 1 82 17.0434 5.88952
1604 2 85.28 18.9371 4.34441
1605 3 85.28 18.9371 7.43464
1606 1 83.64 19.8839 5.88952
1607 2 86.92 21.7777 4.34441
1608 3 86.92 21.7777 7.43464
1673 2 86.92 16.0965 4.34441
1674 3 86.92 16.0965 7.43464
1675 1 85.28 17.0434 5.88952
1676 2 88.56 18.9371 4.34441
1677 3 88.56 18.9371 7.43464
1678 1 86.92 19.8839 5.88952
1679 2 90.2 21.7777 4.34441
1680 3 90.2 21.7777 7.43464
25 1 13.12 22.7245 5.88952
26 2 16.4 24.6182 4.34441
27 3 16.4 24.6182 7.43464
28 1 14.76 25.5651 5.88952
29 2 18.04 27.4588 4.34441
30 3 18.04 27.4588 7.43464
31 1 16.4 28.4056 5.88952
32 2 19.68 30.2993 4.34441
33 3 19.68 30.2993 7.43464
97 1 16.4 22.7245 5.88952
98 2 19.68 24.6182 4.34441
99 3 19.68 24.6182 7.43464
100 1 18.04 25.5651 5.88952
101 2 21.32 27.4588 4.34441
102 3 21.32 27.4588 7.43464
103 1 19.68 28.4056 5.88952
169 1 19.68 22.7245 5.88952
172 1 21.32 25.5651 5.88952
104 2 22.96 30.2993 4.34441
105 3 22.96 30.2993 7.43464
170 2 22.96 24.6182 4.34441
171 3 22.96 24.6182 7.43464
173 2 24.6 27.4588 4.34441
174 3 24.6 27.4588 7.43464
175 1 22.96 28.4056 5.88952
176 2 26.24 30.2993 4.34441
177 3 26.24 30.2993 7.43464
241 1 22.96 22.7245 5.88952
242 2 26.24 24.6182 4.34441
243 3 26.24 24.6182 7.43464
244 1 24.6 25.5651 5.88952
245 2 27.88 27.4588 4.34441
246 3 27.88 27.4588 7.43464
247 1 26.24 28.4056 5.88952
248 2 29.52 30.2993 4.34441
249 3 29.52 30.2993 7.43464
313 1 26.24 22.7245 5.88952
314 2 29.52 24.6182 4.34441
315 3 29.52 24.6182 7.43464
316 1 27.88 25.5651 5.88952
317 2 31.16 27.4588 4.34441
318 3 31.16 27.4588 7.43464
319 1 29.52 28.4056 5.88952
320 2 32.8 30.2993 4.34441
321 3 32.8 30.2993 7.43464
385 1 29.52 22.7245 5.88952
386 2 32.8 24.6182 4.34441
387 3 32.8 24.6182 7.43464
388 1 31.16 25.5651 5.88952
389 2 34.44 27.4588 4.34441
390 3 34.44 27.4588 7.43464
391 1 32.8 28.4056 5.88952
392 2 36.08 30.2993 4.34441
393 3 36.08 30.2993 7.43464
457 1 32.8 22.7245 5.88952
458 2 36.08 24.6182 4.34441
459 3 36.08 24.6182 7.43464
460 1 34.44 25.5651 5.88952
463 1 36.08 28.4056 5.88952
529 1 36.08 22.7245 5.88952
461 2 37.72 27.4588 4.34441
462 3 37.72 27.4588 7.43464
464 2 39.36 30.2993 4.34441
465 3 39.36 30.2993 7.43464
530 2 39.36 24.6182 4.34441
531 3 39.36 24.6182 7.43464
532 1 37.72 25.5651 5.88952
533 2 41 27.4588 4.34441
534 3 41 27.4588 7.43464
535 1 39.36 28.4056 5.88952
536 2 42.64 30.2993 4.34441
537 3 42.64 30.2993 7.43464
601 1 39.36 22.7245 5.88952
602 2 42.64 24.6182 4.34441
603 3 42.64 24.6182 7.43464
604 1 41 25.5651 5.88952
605 2 44.28 27.4588 4.34441
606 3 44.28 27.4588 7.43464
607 1 42.64 28.4056 5.88952
673 1 42.64 22.7245 5.88952
608 2 45.92 30.2993 4.34441
609 3 45.92 30.2993 7.43464
674 2 45.92 24.6182 4.34441
675 3 45.92 24.6182 7.43464
676 1 44.28 25.5651 5.88952
677 2 47.56 27.4588 4.34441
678 3 47.56 27.4588 7.43464
679 1 45.92 28.4056 5.88952
680 2 49.2 30.2993 4.34441
681 3 49.2 30.2993 7.43464
745 1 45.92 22.7245 5.88952
746 2 49.2 24.6182 4.34441
747 3 49.2 24.6182 7.43464
748 1 47.56 25.5651 5.88952
749 2 50.84 27.4588 4.34441
750 3 50.84 27.4588 7.43464
751 1 49.2 28.4056 5.88952
817 1 49.2 22.7245 5.88952
820 1 50.84 25.5651 5.88952
752 2 52.48 30.2993 4.34441
753 3 52.48 30.2993 7.43464
818 2 52.48 24.6182 4.34441
819 3 52.48 24.6182 7.43464
821 2 54.12 27.4588 4.34441
822 3 54.12 27.4588 7.43464
823 1 52.48 28.4056 5.88952
824 2 55.76 30.2993 4.34441
825 3 55.76 30.2993 7.43464
889 1 52.48 22.7245 5.88952
890 2 55.76 24.6182 4.34441
891 3 55.76 24.6182 7.43464
892 1 54.12 25.5651 5.88952
893 2 57.4 27.4588 4.34441
894 3 57.4 27.4588 7.43464
895 1 55.76 28.4056 5.88952
896 2 59.04 30.2993 4.34441
897 3 59.04 30.2993 7.43464
961 1 55.76 22.7245 5.88952
962 2 59.04 24.6182 4.34441
963 3 59.04 24.6182 7.43464
964 1 57.4 25.5651 5.88952
967 1 59.04 28.4056 5.88952
965 2 60.68 27.4588 4.34441
966 3 60.68 27.4588 7.43464
968 2 62.32 30.2993 4.34441
969 3 62.32 30.2993 7.43464
1033 1 59.04 22.7245 5.88952
1034 2 62.32 24.6182 4.34441
1035 3 62.32 24.6182 7.43464
1036 1 60.68 25.5651 5.88952
1037 2 63.96 27.4588 4.34441
1038 3 63.96 27.4588 7.43464
1039 1 62.32 28.4056 5.88952
1040 2 65.6 30.2993 4.34441
1041 3 65.6 30.2993 7.43464
1105 1 62.32 22.7245 5.88952
1106 2 65.6 24.6182 4.34441
1107 3 65.6 24.6182 7.43464
1108 1 63.96 25.5651 5.88952
1111 1 65.6 28.4056 5.88952
1177 1 65.6 22.7245 5.88952
1109 2 67.24 27.4588 4.34441
1110 3 67.24 27.4588 7.43464
1112 2 68.88 30.2993 4.34441
1113 3 68.88 30.2993 7.43464
1178 2 68.88 24.6182 4.34441
1179 3 68.88 24.6182 7.43464
1180 1 67.24 25.5651 5.88952
1181 2 70.52 27.4588 4.34441
1182 3 70.52 27.4588 7.43464
1183 1 68.88 28.4056 5.88952
1184 2 72.16 30.2993 4.34441
1185 3 72.16 30.2993 7.43464
1249 1 68.88 22.7245 5.88952
1250 2 72.16 24.6182 4.34441
1251 3 72.16 24.6182 7.43464
1252 1 70.52 25.5651 5.88952
1253 2 73.8 27.4588 4.34441
1254 3 73.8 27.4588 7.43464
1255 1 72.16 28.4056 5.88952
1321 1 72.16 22.7245 5.88952
1256 2 75.44 30.2993 4.34441
1257 3 75.44 30.2993 7.43464
1322 2 75.44 24.6182 4.34441
1323 3 75.44 24.6182 7.43464
1324 1 73.8 25.5651 5.88952
1325 2 77.08 27.4588 4.34441
1326 3 77.08 27.4588 7.43464
1327 1 75.44 28.4056 5.88952
1328 2 78.72 30.2993 4.34441
1329 3 78.72 30.2993 7.43464
1393 1 75.44 22.7245 5.88952
1394 2 78.72 24.6182 4.34441
1395 3 78.72 24.6182 7.43464
1396 1 77.08 25.5651 5.88952
1397 2 80.36 27.4588 4.34441
1398 3 80.36 27.4588 7.43464
1399 1 78.72 28.4056 5.88952
1465 1 78.72 22.7245 5.88952
1468 1 80.36 25.5651 5.88952
1400 2 82 30.2993 4.34441
1401 3 82 30.2993 7.43464
1466 2 82 24.6182 4.34441
1467 3 82 24.6182 7.43464
1469 2 83.64 27.4588 4.34441
1470 3 83.64 27.4588 7.43464
1471 1 82 28.4056 5.88952
1472 2 85.28 30.2993 4.34441
1473 3 85.28 30.2993 7.43464
1537 1 82 22.7245 5.88952
1538 2 85.28 24.6182 4.34441
1539 3 85.28 24.6182 7.43464
1540 1 83.64 25.5651 5.88952
1541 2 86.92 27.4588 4.34441
1542 3 86.92 27.4588 7.43464
1543 1 85.28 28.4056 5.88952
1544 2 88.56 30.2993 4.34441
1545 3 88.56 30.2993 7.43464
1609 1 85.28 22.7245 5.88952
1610 2 88.56 24.6182 4.34441
1611 3 88.56 24.6182 7.43464
1612 1 86.92 25.5651 5.88952
1613 2 90.2 27.4588 4.34441
1614 3 90.2 27.4588 7.43464
1615 1 88.56 28.4056 5.88952
1616 2 91.84 30.2993 4.34441
1617 3 91.84 30.2993 7.43464
1681 1 88.56 22.7245 5.88952
1682 2 91.84 24.6182 4.34441
1683 3 91.84 24.6182 7.43464
1684 1 90.2 25.5651 5.88952
1685 2 93.48 27.4588 4.34441
1686 3 93.48 27.4588 7.43464
1687 1 91.84 28.4056 5.88952
1688 2 95.12 30.2993 4.34441
1689 3 95.12 30.2993 7.43464
34 1 18.04 31.2462 5.88952
35 2 21.32 33.1399 4.34441
36 3 21.32 33.1399 7.43464
37 1 19.68 34.0868 5.88952
40 1 21.32 36.9273 5.88952
106 1 21.32 31.2462 5.88952
38 2 22.96 35.9805 4.34441
39 3 22.96 35.9805 7.43464
107 2 24.6 33.1399 4.34441
108 3 24.6 33.1399 7.43464
109 1 22.96 34.0868 5.88952
110 2 26.24 35.9805 4.34441
111 3 26.24 35.9805 7.43464
112 1 24.6 36.9273 5.88952
178 1 24.6 31.2462 5.88952
179 2 27.88 33.1399 4.34441
180 3 27.88 33.1399 7.43464
181 1 26.24 34.0868 5.88952
182 2 29.52 35.9805 4.34441
183 3 29.52 35.9805 7.43464
184 1 27.88 36.9273 5.88952
250 1 27.88 31.2462 5.88952
251 2 31.16 33.1399 4.34441
252 3 31.16 33.1399 7.43464
253 1 29.52 34.0868 5.88952
254 2 32.8 35.9805 4.34441
255 3 32.8 35.9805 7.43464
256 1 31.16 36.9273 5.88952
322 1 31.16 31.2462 5.88952
323 2 34.44 33.1399 4.34441
324 3 34.44 33.1399 7.43464
325 1 32.8 34.0868 5.88952
326 2 36.08 35.9805 4.34441
327 3 36.08 35.9805 7.43464
328 1 34.44 36.9273 5.88952
394 1 34.44 31.2462 5.88952
397 1 36.08 34.0868 5.88952
395 2 37.72 33.1399 4.34441
396 3 37.72 33.1399 7.43464
398 2 39.36 35.9805 4.34441
399 3 39.36 35.9805 7.43464
400 1 37.72 36.9273 5.88952
466 1 37.72 31.2462 5.88952
467 2 41 33.1399 4.34441
468 3 41 33.1399 7.43464
469 1 39.36 34.0868 5.88952
470 2 42.64 35.9805 4.34441
471 3 42.64 35.9805 7.43464
472 1 41 36.9273 5.88952
538 1 41 31.2462 5.88952
539 2 44.28 33.1399 4.34441
540 3 44.28 33.1399 7.43464
541 1 42.64 34.0868 5.88952
544 1 44.28 36.9273 5.88952
542 2 45.92 35.9805 4.34441
543 3 45.92 35.9805 7.43464
610 1 44.28 31.2462 5.88952
611 2 47.56 33.1399 4.34441
612 3 47.56 33.1399 7.43464
613 1 45.92 34.0868 5.88952
614 2 49.2 35.9805 4.34441
615 3 49.2 35.9805 7.43464
616 1 47.56 36.9273 5.88952
682 1 47.56 31.2462 5.88952
683 2 50.84 33.1399 4.34441
684 3 50.84 33.1399 7.43464
685 1 49.2 34.0868 5.88952
688 1 50.84 36.9273 5.88952
754 1 50.84 31.2462 5.88952
686 2 52.48 35.9805 4.34441
687 3 52.48 35.9805 7.43464
755 2 54.12 33.1399 4.34441
756 3 54.12 33.1399 7.43464
757 1 52.48 34.0868 5.88952
758 2 55.76 35.9805 4.34441
759 3 55.76 35.9805 7.43464
760 1 54.12 36.9273 5.88952
826 1 54.12 31.2462 5.88952
827 2 57.4 33.1399 4.34441
828 3 57.4 33.1399 7.43464
829 1 55.76 34.0868 5.88952
830 2 59.04 35.9805 4.34441
831 3 59.04 35.9805 7.43464
832 1 57.4 36.9273 5.88952
898 1 57.4 31.2462 5.88952
899 2 60.68 33.1399 4.34441
900 3 60.68 33.1399 7.43464
901 1 59.04 34.0868 5.88952
902 2 62.32 35.9805 4.34441
903 3 62.32 35.9805 7.43464
904 1 60.68 36.9273 5.88952
970 1 60.68 31.2462 5.88952
971 2 63.96 33.1399 4.34441
972 3 63.96 33.1399 7.43464
973 1 62.32 34.0868 5.88952
974 2 65.6 35.9805 4.34441
975 3 65.6 35.9805 7.43464
976 1 63.96 36.9273 5.88952
1042 1 63.96 31.2462 5.88952
1045 1 65.6 34.0868 5.88952
1043 2 67.24 33.1399 4.34441
1044 3 67.24 33.1399 7.43464
1046 2 68.88 35.9805 4.34441
1047 3 68.88 35.9805 7.43464
1048 1 67.24 36.9273 5.88952
1114 1 67.24 31.2462 5.88952
1115 2 70.52 33.1399 4.34441
1116 3 70.52 33.1399 7.43464
1117 1 68.88 34.0868 5.88952
1118 2 72.16 35.9805 4.34441
1119 3 72.16 35.9805 7.43464
1120 1 70.52 36.9273 5.88952
1186 1 70.52 31.2462 5.88952
1187 2 73.8 33.1399 4.34441
1188 3 73.8 33.1399 7.43464
1189 1 72.16 34.0868 5.88952
1258 1 73.8 31.2462 5.88952
1190 2 75.44 35.9805 4.34441
1191 3 75.44 35.9805 7.43464
1192 1 73.8 36.9273 5.88952
1259 2 77.08 33.1399 4.34441
1260 3 77.08 33.1399 7.43464
1261 1 75.44 34.0868 5.88952
1262 2 78.72 35.9805 4.34441
1263 3 78.72 35.9805 7.43464
1264 1 77.08 36.9273 5.88952
1330 1 77.08 31.2462 5.88952
1331 2 80.36 33.1399 4.34441
1332 3 80.36 33.1399 7.43464
1333 1 78.72 34.0868 5.88952
1336 1 80.36 36.9273 5.88952
1402 1 80.36 31.2462 5.88952
1334 2 82 35.9805 4.34441
1335 3 82 35.9805 7.43464
1403 2 83.64 33.1399 4.34441
1404 3 83.64 33.1399 7.43464
1405 1 82 34.0868 5.88952
1406 2 85.28 35.9805 4.34441
1407 3 85.28 35.9805 7.43464
1408 1 83.64 36.9273 5.88952
1474 1 83.64 31.2462 5.88952
1475 2 86.92 33.1399 4.34441
1476 3 86.92 33.1399 7.43464
1477 1 85.28 34.0868 5.88952
1478 2 88.56 35.9805 4.34441
1479 3 88.56 35.9805 7.43464
1480 1 86.92 36.9273 5.88952
1546 1 86.92 31.2462 5.88952
1547 2 90.2 33.1399 4.34441
1548 3 90.2 33.1399 7.43464
1549 1 88.56 34.0868 5.88952
1550 2 91.84 35.9805 4.34441
1551 3 91.84 35.9805 7.43464
1552 1 90.2 36.9273 5.88952
1618 1 90.2 31.2462 5.88952
1619 2 93.48 33.1399 4.34441
1620 3 93.48 33.1399 7.43464
1621 1 91.84 34.0868 5.88952
1622 2 95.12 35.9805 4.34441
1623 3 95.12 35.9805 7.43464
1624 1 93.48 36.9273 5.88952
1690 1 93.48 31.2462 5.88952
1693 1 95.12 34.0868 5.88952
1691 2 96.76 33.1399 4.34441
1692 3 96.76 33.1399 7.43464
1694 2 98.4 35.9805 4.34441
1695 3 98.4 35.9805 7.43464
1696 1 96.76 36.9273 5.88952
41 2 24.6 38.821 4.34441
42 3 24.6 38.821 7.43464
43 1 22.96 39.7679 5.88952
44 2 26.24 41.6616 4.34441
45 3 26.24 41.6616 7.43464
46 1 24.6 42.6084 5.88952
47 2 27.88 44.5022 4.34441
48 3 27.88 44.5022 7.43464
113 2 27.88 38.821 4.34441
114 3 27.88 38.821 7.43464
115 1 26.24 39.7679 5.88952
116 2 29.52 41.6616 4.34441
117 3 29.52 41.6616 7.43464
118 1 27.88 42.6084 5.88952
119 2 31.16 44.5022 4.34441
120 3 31.16 44.5022 7.43464
185 2 31.16 38.821 4.34441
186 3 31.16 38.821 7.43464
187 1 29.52 39.7679 5.88952
188 2 32.8 41.6616 4.34441
189 3 32.8 41.6616 7.43464
190 1 31.16 42.6084 5.88952
191 2 34.44 44.5022 4.34441
192 3 34.44 44.5022 7.43464
257 2 34.44 38.821 4.34441
258 3 34.44 38.821 7.43464
259 1 32.8 39.7679 5.88952
260 2 36.08 41.6616 4.34441
261 3 36.08 41.6616 7.43464
262 1 34.44 42.6084 5.88952
331 1 36.08 39.7679 5.88952
263 2 37.72 44.5022 4.34441
264 3 37.72 44.5022 7.43464
329 2 37.72 38.821 4.34441
330 3 37.72 38.821 7.43464
332 2 39.36 41.6616 4.34441
333 3 39.36 41.6616 7.43464
334 1 37.72 42.6084 5.88952
335 2 41 44.5022 4.34441
336 3 41 44.5022 7.43464
401 2 41 38.821 4.34441
402 3 41 38.821 7.43464
403 1 39.36 39.7679 5.88952
404 2 42.64 41.6616 4.34441
405 3 42.64 41.6616 7.43464
406 1 41 42.6084 5.88952
407 2 44.28 44.5022 4.34441
408 3 44.28 44.5022 7.43464
473 2 44.28 38.821 4.34441
474 3 44.28 38.821 7.43464
475 1 42.64 39.7679 5.88952
476 2 45.92 41.6616 4.34441
477 3 45.92 41.6616 7.43464
478 1 44.28 42.6084 5.88952
479 2 47.56 44.5022 4.34441
480 3 47.56 44.5022 7.43464
545 2 47.56 38.821 4.34441
546 3 47.56 38.821 7.43464
547 1 45.92 39.7679 5.88952
548 2 49.2 41.6616 4.34441
549 3 49.2 41.6616 7.43464
550 1 47.56 42.6084 5.88952
551 2 50.84 44.5022 4.34441
552 3 50.84 44.5022 7.43464
617 2 50.84 38.821 4.34441
618 3 50.84 38.821 7.43464
619 1 49.2 39.7679 5.88952
622 1 50.84 42.6084 5.88952
620 2 52.48 41.6616 4.34441
621 3 52.48 41.6616 7.43464
623 2 54.12 44.5022 4.34441
624 3 54.12 44.5022 7.43464
689 2 54.12 38.821 4.34441
690 3 54.12 38.821 7.43464
691 1 52.48 39.7679 5.88952
692 2 55.76 41.6616 4.34441
693 3 55.76 41.6616 7.43464
694 1 54.12 42.6084 5.88952
695 2 57.4 44.5022 4.34441
696 3 57.4 44.5022 7.43464
761 2 57.4 38.821 4.34441
762 3 57.4 38.821 7.43464
763 1 55.76 39.7679 5.88952
764 2 59.04 41.6616 4.34441
765 3 59.04 41.6616 7.43464
766 1 57.4 42.6084 5.88952
767 2 60.68 44.5022 4.34441
768 3 60.68 44.5022 7.43464
833 2 60.68 38.821 4.34441
834 3 60.68 38.821 7.43464
835 1 59.04 39.7679 5.88952
836 2 62.32 41.6616 4.34441
837 3 62.32 41.6616 7.43464
838 1 60.68 42.6084 5.88952
839 2 63.96 44.5022 4.34441
840 3 63.96 44.5022 7.43464
905 2 63.96 38.821 4.34441
906 3 63.96 38.821 7.43464
907 1 62.32 39.7679 5.88952
908 2 65.6 41.6616 4.34441
909 3 65.6 41.6616 7.43464
910 1 63.96 42.6084 5.88952
979 1 65.6 39.7679 5.88952
911 2 67.24 44.5022 4.34441
912 3 67.24 44.5022 7.43464
977 2 67.24 38.821 4.34441
978 3 67.24 38.821 7.43464
980 2 68.88 41.6616 4.34441