ITEM: TIMESTEP
341
ITEM: NUMBER OF ATOMS
676
ITEM: BOX BOUNDS xy xz yz pp pp pp
0.0000000000000000e+00 4.8828000000837150e+01 1.6276000000253092e+01
0.0000000000000000e+00 2.8190858943991795e+01 0.0000000000000000e+00
0.0000000000000000e+00 1.0000000000000003e+02 0.0000000000000000e+00
ITEM: ATOMS id type x y z
1 1 16.1689 25.6887 49.8895
2 2 19.0586 25.5655 49.8941
3 1 18.3893 26.8471 49.8896
4 2 21.2791 26.7253 49.9087
5 1 20.6097 28.0068 49.9052
6 2 23.4987 27.8883 49.9338
7 1 13.8469 22.0262 49.9322
8 2 16.7349 21.9056 49.9215
9 1 16.0639 23.1864 49.9123
10 2 18.9541 23.0648 49.9153
11 1 18.2831 24.3455 49.9052
12 2 21.1743 24.2246 49.9223
13 1 20.5034 25.5052 49.9127
14 2 23.3944 25.387 49.9403
15 1 22.7238 26.6674 49.9328
16 2 25.6138 26.5534 49.9639
17 1 24.9433 27.8336 49.9597
18 2 27.8321 27.7247 49.9868
19 1 11.5379 18.3569 49.9866
20 2 14.4216 18.2417 49.9706
21 1 13.7484 19.5219 49.9638
22 2 16.6359 19.4044 49.954
23 1 15.9626 20.6841 49.9438
24 2 18.8533 20.565 49.9443
25 1 18.1798 21.8444 49.9322
26 2 21.0725 21.7255 49.945
27 1 20.3991 23.0046 49.9327
28 2 23.2924 22.8875 49.9561
29 1 22.6193 24.1666 49.9452
30 2 25.5119 24.053 49.9739
31 1 24.8394 25.3321 49.9658
32 2 27.7305 25.2232 49.9924
33 1 27.0586 26.5022 49.9883
34 2 29.9483 26.3979 50.0061
35 1 29.2768 27.6769 50.0067
36 2 32.1654 27.576 50.0114
37 1 9.24194 14.6796 50.0169
38 2 12.1216 14.5692 50.0076
39 1 11.4472 15.8494 50.0078
40 2 14.33 15.7376 49.9975
41 1 13.6549 17.0169 49.9931
42 2 16.5419 16.9031 49.9847
43 1 15.8661 18.1817 49.9767
44 2 18.7573 18.0661 49.9742
45 1 18.0809 19.344 49.9639
46 2 20.9751 19.2277 49.9707
47 1 20.2986 20.5052 49.9595
48 2 23.1942 20.3898 49.9761
49 1 22.5179 21.6673 49.9655
50 2 25.4133 21.5545 49.9885
51 1 24.7377 22.8321 49.9799
52 2 27.6316 22.7233 50.0032
53 1 26.9571 24.0011 49.9975
54 2 29.8488 23.8966 50.0143
55 1 29.1756 25.1748 50.0125
56 2 32.0652 25.0736 50.0176
57 1 31.3932 26.3521 50.02
58 2 34.2815 26.252 50.0109
59 1 33.6102 27.5309 50.018
60 2 36.4982 27.4293 49.9944
61 1 6.94849 11.0001 50.0061
62 2 9.8279 10.8898 50.0095
63 1 9.15419 12.1704 50.0174
64 2 12.034 12.0616 50.0168
65 1 11.3591 13.3414 50.0202
66 2 14.2416 13.2327 50.0156
67 1 13.5653 14.5115 50.0151
68 2 16.452 14.4015 50.0085
69 1 15.7743 15.6792 50.0047
70 2 18.6658 15.5674 49.9994
71 1 17.9869 16.8441 49.9936
72 2 20.8823 16.731 49.9935
73 1 20.2027 18.007 49.9867
74 2 23.1004 17.8938 49.9944
75 1 22.4208 19.1695 49.9876
76 2 25.3189 19.0578 50.0024
77 1 24.6399 20.3337 49.9966
78 2 27.5366 20.225 50.014
79 1 26.8588 21.5014 50.0101
80 2 29.7529 21.3964 50.0239
81 1 29.0769 22.6735 50.0225
82 2 31.9679 22.5716 50.0269
83 1 31.2939 23.8495 50.0284
84 2 34.1824 23.749 50.0199
85 1 33.5101 25.0277 50.0247
86 2 36.3971 24.926 50.0024
87 1 35.7262 26.2054 50.0106
88 2 38.613 26.1 49.9761
89 1 37.9429 27.38 49.9876
90 2 40.8305 27.2697 49.945
91 1 4.64466 7.32644 49.9595
92 2 7.52771 7.21123 49.9742
93 1 6.85614 8.49254 49.9867
94 2 9.73734 8.3813 49.9994
95 1 9.0646 9.66203 50.0088
96 2 11.9456 9.55402 50.0163
97 1 11.2712 10.8338 50.0226
98 2 14.154 10.7274 50.0238
99 1 13.4777 12.0059 50.0273
100 2 16.3643 11.8995 50.0227
101 1 15.6859 13.1766 50.0241
102 2 18.5772 13.0687 50.0163
103 1 17.897 14.3445 50.0163
104 2 20.7929 14.2348 50.0095
105 1 20.1113 15.5097 50.0088
106 2 23.0103 15.3988 50.0069
107 1 22.3281 16.6732 50.0061
108 2 25.2283 16.5626 50.0109
109 1 24.5464 17.8371 50.0106
110 2 27.4456 17.7283 50.0199
111 1 26.7647 19.0033 50.0207
112 2 29.6611 18.8974 50.0295
113 1 28.9821 20.1733 50.0316
114 2 31.8747 20.0702 50.0341
115 1 31.1981 21.3473 50.0376
116 2 34.0871 21.2458 50.0295
117 1 33.4128 22.524 50.0346
118 2 36.2991 22.4218 50.014
119 1 35.627 23.7011 50.0207
120 2 38.5121 23.5959 49.9885
121 1 37.8416 24.8761 49.9966
122 2 40.727 24.7662 49.9561
123 1 40.0575 26.047 49.9655
124 2 42.944 25.9319 49.9223
125 1 42.2751 27.2133 49.9327
126 2 45.1631 27.0937 49.8941
127 1 2.32665 3.66087 49.9052
128 2 5.21378 3.54007 49.9215
129 1 4.54426 4.82194 49.9322
130 2 7.42937 4.70496 49.954
131 1 6.75916 5.98651 49.9639
132 2 9.64254 5.87415 49.9847
133 1 8.97116 7.15505 49.9936
134 2 11.8539 7.04711 50.0085
135 1 11.1808 8.327 50.0163
136 2 14.0646 8.22215 50.0227
137 1 13.3893 9.50071 50.0296
138 2 16.276 9.39695 50.0272
139 1 15.5983 10.674 50.0334
140 2 18.4892 10.5694 50.0238
141 1 17.8092 11.845 50.0296
142 2 20.7046 11.7383 50.0168
143 1 20.0227 13.0128 50.0226
144 2 22.9219 12.904 50.0113
145 1 22.2388 14.1779 50.0174
146 2 25.1398 14.0681 50.0114
147 1 24.4564 15.3419 50.018
148 2 27.357 15.2325 50.0176
149 1 26.6743 16.5067 50.0247
150 2 29.5724 16.3992 50.0269
151 1 28.8913 17.6743 50.0346
152 2 31.7853 17.5692 50.0341
153 1 31.1064 18.8456 50.0421
154 2 33.996 18.7423 50.0341
155 1 33.3196 20.02 50.0421
156 2 36.2054 19.9168 50.0239
157 1 35.5315 21.1958 50.0316
158 2 38.4151 21.0904 50.0032
159 1 37.7434 22.3706 50.0101
160 2 40.6266 22.2613 49.9739
161 1 39.9563 23.5422 49.9799
162 2 42.8406 23.428 49.9403
163 1 42.1712 24.7095 49.9452
164 2 45.0573 24.5908 49.9087
165 1 44.3885 25.8726 49.9127
166 2 47.2763 25.7506 49.8862
167 1 46.6076 27.0326 49.8896
168 2 16.9446 26.9088 49.8781
169 1 -1.7955e-09 6.72994e-11 49.8812
170 2 19.1652 28.0672 49.8862
171 1 2.2205 1.15836 49.8895
172 2 5.10896 1.0366 49.9084
173 1 4.44005 2.3185 49.9123
174 2 7.32713 2.20036 49.9389
175 1 6.65777 3.48194 49.9438
176 2 9.54338 3.3686 49.9706
177 1 8.87316 4.64959 49.9767
178 2 11.7579 4.54132 49.9975
179 1 11.0863 5.8214 50.0047
180 2 13.9713 5.71723 50.0156
181 1 13.2978 6.99611 50.0241
182 2 16.1847 6.89404 50.0238
183 1 15.5089 8.17153 50.0334
184 2 18.3991 8.06921 50.0227
185 1 17.7208 9.34532 50.0334
186 2 20.6151 9.24091 50.0156
187 1 19.9346 10.5158 50.0273
188 2 22.8326 10.4087 50.0076
189 1 22.1504 11.6828 50.0202
190 2 25.0508 11.5734 50.0035
191 1 24.3679 12.8473 50.0169
192 2 27.2686 12.737 50.0061
193 1 26.5858 14.0112 50.02
194 2 29.4846 13.9015 50.0143
195 1 28.8028 15.1765 50.0284
196 2 31.6977 15.0685 50.0239
197 1 31.0177 16.3447 50.0376
198 2 33.9078 16.2386 50.0295
199 1 33.2301 17.5161 50.0421
200 2 36.1157 17.4109 50.0269
201 1 35.4402 18.6898 50.0376
202 2 38.3227 18.5836 50.0143
203 1 37.6494 19.8637 50.0225
204 2 40.5306 19.7548 49.9924
205 1 39.859 21.0356 49.9975
206 2 42.741 20.9228 49.9639
207 1 42.0706 22.2041 49.9658
208 2 44.9546 22.0871 49.9338
209 1 44.2848 23.3687 49.9328
210 2 14.6192 23.2481 49.9084
211 1 46.5017 24.5297 49.9052
212 2 16.8383 24.407 49.8939
213 1 6.55331 0.97864 49.9322
214 2 9.4411 0.864717 49.9627
215 1 8.7713 2.14552 49.9638
216 2 11.658 2.03685 49.9888
217 1 10.9875 3.31699 49.9931
218 2 13.8739 3.21296 50.0076
219 1 13.202 4.49219 50.0151
220 2 16.0893 4.39096 50.0168
221 1 15.4157 5.66909 50.0273
222 2 18.3052 5.56816 50.0163
223 1 17.6295 6.84514 50.0296
224 2 20.5221 6.74221 50.0085
225 1 19.8443 8.01818 50.0241
226 2 22.7402 7.91196 49.9975
227 1 22.0606 9.1872 50.0151
228 2 24.959 9.07772 49.9888
229 1 24.2784 10.3526 50.0078
230 2 27.1777 10.241 49.9868
231 1 26.4966 11.516 50.0067
232 2 29.3948 11.4038 49.9924
233 1 28.7142 12.6794 50.0125
234 2 31.6093 12.568 50.0032
235 1 30.9297 13.8446 50.0225
236 2 33.8203 13.7349 50.014
237 1 33.1424 15.0126 50.0316
238 2 36.0281 14.9044 50.0199
239 1 35.3519 16.1834 50.0346
240 2 38.2337 16.0756 50.0176
241 1 37.5594 17.3557 50.0284
242 2 40.4392 17.2468 50.0061
243 1 39.7662 18.5275 50.0125
244 2 42.6462 18.4161 49.9868
245 1 41.9743 19.6971 49.9883
246 2 12.3043 19.5823 49.9627
247 1 44.1849 20.8634 49.9597
248 2 14.518 20.7452 49.9389
249 1 10.8855 0.813653 49.9866
250 2 13.7735 0.709532 50.0035
251 1 13.1025 1.98886 50.0078
252 2 15.9903 1.88792 50.0113
253 1 15.3184 3.16659 50.0202
254 2 18.2072 3.06634 50.0095
255 1 17.5341 4.34427 50.0226
256 2 20.4249 4.24213 49.9994
257 1 19.7502 5.51936 50.0163
258 2 22.6436 5.41361 49.9847
259 1 21.9674 6.69031 50.0047
260 2 24.863 6.58051 49.9706
261 1 24.1857 7.85693 49.9931
262 2 27.0826 7.74387 49.9627
263 1 26.4046 9.02033 49.9866
264 2 29.3012 8.90552 49.9639
265 1 28.6231 10.1824 49.9883
266 2 31.5175 10.0674 49.9739
267 1 30.8399 11.345 49.9975
268 2 33.7306 11.2313 49.9885
269 1 33.0538 12.5097 50.0101
270 2 35.94 12.3979 50.0024
271 1 35.2643 13.6773 50.0207
272 2 38.1462 13.5671 50.0109
273 1 37.4716 14.8473 50.0247
274 2 40.3508 14.7377 50.0114
275 1 39.677 16.0184 50.02
276 2 10.0037 15.9079 50.0035
277 1 41.8825 17.1888 50.0067
278 2 12.211 17.0763 49.9888
279 1 15.2182 0.663974 50.0169
280 2 18.1066 0.563944 50.0069
281 1 17.435 1.84257 50.0174
282 2 20.3243 1.74079 49.9935
283 1 19.6521 3.01916 50.0088
284 2 22.543 2.91357 49.9742
285 1 21.87 4.19173 49.9936
286 2 24.7627 4.08155 49.954
287 1 24.0888 5.35959 49.9767
288 2 26.9829 5.24531 49.9389
289 1 26.3083 6.52341 49.9638
290 2 29.2027 6.40638 49.9338
291 1 28.5278 7.68473 49.9597
292 2 31.421 7.56668 49.9403
293 1 30.7461 8.84548 49.9658
294 2 33.6366 8.72804 49.9561
295 1 32.962 10.0074 49.9799
296 2 35.8488 9.89185 49.9761
297 1 35.1745 11.1719 49.9966
298 2 38.0573 11.0587 49.9944
299 1 37.3834 12.3393 50.0106
300 2 7.7111 12.2281 50.0069
301 1 39.5894 13.5089 50.018
302 2 9.91585 13.3989 50.0113
303 1 19.5514 0.517509 50.0061
304 2 22.4401 0.412031 49.9707
305 1 21.7692 1.69132 49.9867
306 2 24.6592 1.58091 49.9443
307 1 23.988 2.86035 49.9639
308 2 26.8793 2.74523 49.9215
309 1 26.2077 4.02483 49.9438
310 2 29.0998 3.90619 49.9084
311 1 28.4278 5.18601 49.9322
312 2 31.3196 5.06555 49.9087
313 1 30.6475 6.34565 49.9328
314 2 33.5377 6.22513 49.9223
315 1 32.8655 7.50559 49.9452
316 2 35.7529 7.38661 49.945
317 1 35.0806 8.66742 49.9655
318 2 5.41278 8.55114 49.9707
319 1 37.2923 9.8322 49.9876
320 2 7.6214 9.71908 49.9935
321 1 23.8848 0.359173 49.9595
322 2 26.7737 0.24377 49.9153
323 1 26.1039 1.52447 49.9322
324 2 28.9939 1.40498 49.8939
325 1 28.3241 2.68594 49.9123
326 2 31.2145 2.56397 49.8862
327 1 30.5445 3.84515 49.9052
328 2 33.4343 3.72249 49.8941
329 1 32.7641 5.00387 49.9127
330 2 3.10028 4.8823 49.9153
331 1 34.9818 6.16382 49.9327
332 2 5.31551 6.0449 49.9443
333 1 28.2183 0.184507 49.9052
334 2 31.1074 0.0619911 49.8781
335 1 30.4386 1.34383 49.8895
336 2 0.775994 1.22008 49.8781
337 1 32.6591 2.50204 49.8896
338 2 2.99578 2.37888 49.8939
339 3 14.2685 24.3457 53.3948
340 4 17.1583 24.4684 53.4059
341 3 16.3831 25.6888 53.4104
342 4 19.2718 25.812 53.4061
343 3 18.4965 27.0325 53.4105
344 4 21.385 27.1543 53.3916
345 3 12.2518 20.5061 53.3403
346 4 15.145 20.6242 53.3597
347 3 14.3715 21.8452 53.3672
348 4 17.2617 21.9657 53.3777
349 3 16.4881 23.187 53.3873
350 4 19.3763 23.3086 53.3847
351 3 18.6027 24.53 53.3948
352 4 21.4898 24.6508 53.3785
353 3 20.716 25.8724 53.3877
354 4 23.6031 25.9905 53.3611
355 3 22.8293 27.2122 53.3678
356 4 25.7171 27.3261 53.3373
357 3 10.2206 16.6748 53.2933
358 4 13.1188 16.7871 53.3076
359 3 12.3471 18.0085 53.3117
360 4 15.2415 18.1234 53.3261
361 3 14.4701 19.3454 53.3342
362 4 17.3606 19.4628 53.3439
363 3 16.5895 20.6853 53.3548
364 4 19.4769 20.8043 53.355
365 3 18.7058 22.027 53.3673
366 4 21.5915 22.146 53.3557
367 3 20.8203 23.3689 53.3678
368 4 23.7054 23.4859 53.346
369 3 22.9338 24.7089 53.3562
370 4 25.8194 24.8223 53.3294
371 3 25.0473 26.0453 53.3362
372 4 27.934 26.154 53.3112
373 3 27.1615 27.3772 53.3134
374 4 30.0495 27.4813 53.2965
375 3 8.18041 12.849 53.282
376 4 11.081 12.9584 53.2824
377 3 10.3098 14.1797 53.28
378 4 13.2086 14.2893 53.2857
379 3 12.4382 15.5115 53.2875
380 4 15.3333 15.6229 53.2968
381 3 14.5639 16.8459 53.3025
382 4 17.4546 16.9596 53.3115
383 3 16.686 18.1834 53.3201
384 4 19.5728 18.299 53.3239
385 3 18.8046 19.5234 53.3345
386 4 21.6888 19.6397 53.3293
387 3 20.9207 20.8644 53.3405
388 4 23.8037 20.9796 53.3258
389 3 23.0352 22.2044 53.3361
390 4 25.9185 22.3167 53.3153
391 3 25.1492 23.5413 53.3233
392 4 28.0339 23.6495 53.3025
393 3 27.2635 24.8739 53.3069
394 4 30.1499 24.9779 53.2924
395 3 29.3785 26.202 53.2922
396 4 32.2663 26.3029 53.2887
397 3 31.4942 27.5269 53.2831
398 4 34.3826 27.6269 53.2931
399 3 6.14479 9.02131 53.3124
400 4 9.04292 9.13301 53.2976
401 3 8.2704 10.3538 53.2894
402 4 11.1696 10.4626 53.2801
403 3 10.3983 11.6841 53.2753
404 4 13.2964 11.7917 53.2731
405 3 12.5268 13.0144 53.2716
406 4 15.4217 13.1223 53.2761
407 3 14.6537 14.3463 53.2775
408 4 17.5443 14.456 53.286
409 3 16.7778 15.6811 53.2899
410 4 19.664 15.793 53.2976
411 3 18.8985 17.019 53.3034
412 4 21.7813 17.1322 53.3056
413 3 21.0163 18.3587 53.3124
414 4 23.8974 18.4718 53.3065
415 3 23.1321 19.6983 53.3133
416 4 26.0133 19.8096 53.3006
417 3 25.2472 21.0358 53.3064
418 4 28.1299 21.1437 53.2915
419 3 27.3623 22.3695 53.2953
420 4 30.2473 22.4736 53.2844
421 3 29.478 23.6987 53.2849
422 4 32.3653 23.7999 53.2832
423 3 31.5944 25.0243 53.2798
424 4 34.4832 25.1245 53.2905
425 3 33.711 26.3483 53.2826
426 4 36.6003 26.4501 53.3065
427 3 35.8274 27.6734 53.2939
428 4 38.7161 27.7788 53.3293
429 3 4.12311 5.18622 53.3673
430 4 7.01639 5.30335 53.3439
431 3 6.24189 6.52357 53.3345
432 4 9.13729 6.63633 53.3115
433 3 8.36388 7.85711 53.3034
434 4 11.2606 7.96581 53.286
435 3 10.4887 9.18755 53.2793
436 4 13.3851 9.29349 53.2705
437 3 12.6153 10.5165 53.2654
438 4 15.5093 10.6216 53.2659
439 3 14.7417 11.8462 53.2624
440 4 17.6318 11.9523 53.2705
441 3 16.8664 13.1782 53.2684
442 4 19.7521 13.2864 53.2801
443 3 18.9883 14.5136 53.2793
444 4 21.8702 14.6238 53.2891
445 3 21.1074 15.8516 53.2894
446 4 23.9871 15.9627 53.2931
447 3 23.2245 17.1907 53.2939
448 4 26.1039 17.3011 53.2905
449 3 25.3406 18.5288 53.2912
450 4 28.2216 18.6368 53.2837
451 3 27.4568 19.8639 53.2837
452 4 30.3406 19.9687 53.2773
453 3 29.5738 21.1947 53.2759
454 4 32.4607 21.2968 53.2762
455 3 31.6917 22.5218 53.2727
456 4 34.5812 22.6227 53.2837
457 3 33.8101 23.8466 53.2774
458 4 36.7009 23.9487 53.3006
459 3 35.9281 25.1717 53.2912
460 4 38.819 25.2773 53.3258
461 3 38.0452 26.4995 53.3133
462 4 40.9352 26.6099 53.3557
463 3 40.1608 27.8317 53.3405
464 4 43.0497 27.9471 53.3847
465 3 -1.77343e-09 -3.44829e-11 53.4188
466 4 2.8892 0.123691 53.4138
467 3 2.11329 1.34375 53.4104
468 4 5.00307 1.46552 53.3913
469 3 4.22741 2.68565 53.3873
470 4 7.11844 2.80387 53.3597
471 3 6.3433 4.02425 53.3548
472 4 9.2359 4.13784 53.3261
473 3 8.4617 5.35878 53.3201
474 4 11.3556 5.46759 53.2968
475 3 10.5828 6.68945 53.2899
476 4 13.4769 6.79444 53.2761
477 3 12.7061 8.01757 53.2684
478 4 15.5987 8.12064 53.2659
479 3 14.8304 9.34527 53.2579
480 4 17.72 9.44859 53.2659
481 3 16.9541 10.6747 53.2579
482 4 19.8397 10.78 53.2731
483 3 19.0759 12.0075 53.2654
484 4 21.9577 12.1152 53.2824
485 3 21.1956 13.3436 53.2753
486 4 24.0748 13.4532 53.2886
487 3 23.3134 14.6819 53.282
488 4 26.1919 14.792 53.2887
489 3 25.4302 16.0205 53.2826
490 4 28.31 16.1293 53.2832
491 3 27.5472 17.3571 53.2774
492 4 30.43 17.4634 53.2762
493 3 29.6653 18.6902 53.2704
494 4 32.552 18.7939 53.2728
495 3 31.7849 20.0193 53.2666
496 4 34.6751 20.1216 53.2773
497 3 33.9055 21.3457 53.2704
498 4 36.7981 21.4486 53.2915
499 3 36.0262 22.6715 53.2837
500 4 38.9196 22.7773 53.3153
501 3 38.146 23.9991 53.3064
502 4 41.0387 24.1093 53.346
503 3 40.264 25.3305 53.3361
504 4 43.1553 25.4456 53.3785
505 3 42.3799 26.6664 53.3678
506 4 45.2699 26.7859 53.4061
507 3 44.4943 28.0064 53.3948
508 4 47.3834 28.1289 53.4219
509 3 4.33375 0.184033 53.3948
510 4 7.22275 0.3026 53.3662
511 3 6.44776 1.52346 53.3672
512 4 9.33782 1.63746 53.3361
513 3 8.56337 2.85877 53.3342
514 4 11.4545 2.96771 53.3076
515 3 10.6811 4.18975 53.3025
516 4 13.5728 4.29427 53.2857
517 3 12.8009 5.51737 53.2775
518 4 15.6919 5.61921 53.2731
519 3 14.9221 6.8436 53.2624
520 4 17.8111 6.94509 53.2705
521 3 17.0436 8.17085 53.2579
522 4 19.9294 8.2741 53.2761
523 3 19.1642 9.5011 53.2624
524 4 22.0467 9.60724 53.2857
525 3 21.2834 10.8352 53.2716
526 4 24.1632 10.9441 53.2939
527 3 23.401 12.1725 53.28
528 4 26.2797 12.2829 53.2965
529 3 25.5179 13.5113 53.2831
530 4 28.3976 13.6216 53.2924
531 3 27.6351 14.8494 53.2798
532 4 30.5176 14.9581 53.2844
533 3 29.7537 16.1849 53.2727
534 4 32.6403 16.2914 53.2773
535 3 31.8743 17.5168 53.2666
536 4 34.7652 17.6215 53.2762
537 3 33.9968 18.8455 53.2666
538 4 36.8911 18.95 53.2844
539 3 36.1203 20.1727 53.2759
540 4 39.0162 20.2789 53.3025
541 3 38.2434 21.5006 53.2953
542 4 41.139 21.6104 53.3294
543 3 40.3648 22.8313 53.3233
544 4 43.2589 22.9456 53.3611
545 3 42.4837 24.166 53.3562
546 4 45.3758 24.2847 53.3916
547 3 44.6001 25.5049 53.3877
548 4 14.9385 25.6269 53.4138
549 3 46.7146 26.847 53.4105
550 4 17.052 26.9708 53.4219
551 3 8.66729 0.357272 53.3403
552 4 11.5561 0.466188 53.3132
553 3 10.7826 1.68864 53.3117
554 4 13.6723 1.79292 53.2939
555 3 12.8996 3.01607 53.2875
556 4 15.7892 3.11729 53.2824
557 3 15.0179 4.34133 53.2716
558 4 17.9064 4.44184 53.2801
559 3 17.1368 5.66688 53.2654
560 4 20.0231 5.76904 53.286
561 3 19.2555 6.99504 53.2684
562 4 22.1391 7.10042 53.2968
563 3 21.3734 8.3272 53.2775
564 4 24.2546 8.43607 53.3076
565 3 23.4902 9.66332 53.2875
566 4 26.3702 9.7748 53.3132
567 3 25.6065 11.0021 53.2933
568 4 28.487 11.1146 53.3112
569 3 27.7232 12.3415 53.2922
570 4 30.606 12.4533 53.3025
571 3 29.8413 13.6794 53.2849
572 4 32.728 13.7893 53.2915
573 3 31.9619 15.0143 53.2759
574 4 34.8532 15.1222 53.2837
575 3 34.0852 16.3459 53.2704
576 4 36.9806 16.4526 53.2832
577 3 36.2106 17.675 53.2727
578 4 39.1086 17.7822 53.2924
579 3 38.3366 19.0037 53.2849
580 4 41.235 19.1131 53.3112
581 3 40.4617 20.3339 53.3069
582 4 43.3586 20.447 53.3373
583 3 42.5843 21.6675 53.3362
584 4 12.9267 21.7845 53.3662
585 3 44.7038 23.0048 53.3678
586 4 15.0436 23.1253 53.3913
587 3 13.0008 0.513922 53.2933
588 4 15.8894 0.614879 53.2886
589 3 15.1172 1.83872 53.28
590 4 18.0055 1.93882 53.2891
591 3 17.2341 3.16316 53.2753
592 4 20.1211 3.26489 53.2976
593 3 19.351 4.48975 53.2793
594 4 22.2361 4.59496 53.3115
595 3 21.4674 5.82027 53.2899
596 4 24.3506 5.92961 53.3261
597 3 23.583 7.15522 53.3025
598 4 26.465 7.26806 53.3361
599 3 25.6983 8.49371 53.3117
600 4 28.5803 8.60859 53.3373
601 3 27.8139 9.83398 53.3134
602 4 30.6976 9.94911 53.3294
603 3 29.9309 11.1739 53.3069
604 4 32.8179 11.2878 53.3153
605 3 32.0503 12.5117 53.2953
606 4 34.9418 12.6234 53.3006
607 3 34.173 13.8464 53.2837
608 4 37.0689 13.9561 53.2905
609 3 36.2987 15.178 53.2774
610 4 39.1979 15.2868 53.2887
611 3 38.4264 16.508 53.2798
612 4 41.3268 16.6175 53.2965
613 3 40.5544 17.8382 53.2922
614 4 10.9017 17.9499 53.3132
615 3 42.6806 19.1705 53.3134
616 4 13.0252 19.2853 53.3361
617 3 17.3342 0.659943 53.282
618 4 20.2222 0.761605 53.3056
619 3 19.4502 1.9855 53.2894
620 4 22.337 2.09083 53.3239
621 3 21.5656 3.31478 53.3034
622 4 24.451 3.42469 53.3439
623 3 23.6803 4.64866 53.3201
624 4 26.5646 4.76281 53.3597
625 3 25.7946 5.98671 53.3342
626 4 28.6786 6.10378 53.3662
627 3 27.9089 7.32746 53.3403
628 4 30.794 7.44566 53.3611
629 3 30.0244 8.66893 53.3362
630 4 32.9119 8.78651 53.346
631 3 32.1421 10.0092 53.3233
632 4 35.0333 10.1248 53.3258
633 3 34.2629 11.3468 53.3064
634 4 37.1583 11.4599 53.3065
635 3 36.3873 12.6812 53.2912
636 4 39.2863 12.7921 53.2931
637 3 38.5148 14.0129 53.2826
638 4 8.8638 14.1228 53.2886
639 3 40.6439 15.3435 53.2831
640 4 10.9926 15.4539 53.2939
641 3 21.6669 0.810883 53.3124
642 4 24.5545 0.921204 53.355
643 3 23.7815 2.14385 53.3345
644 4 26.668 2.25892 53.3777
645 3 25.8952 3.48134 53.3548
646 4 28.7813 3.60002 53.3913
647 3 28.0088 4.8222 53.3672
648 4 30.8952 4.94279 53.3916
649 3 30.1229 6.16465 53.3678
650 4 33.0109 6.2853 53.3785
651 3 32.2386 7.50676 53.3562
652 4 35.1293 7.62582 53.3557
653 3 34.3569 8.84685 53.3361
654 4 37.2511 8.96317 53.3293
655 3 36.4787 10.1839 53.3133
656 4 6.82445 10.2971 53.3056
657 3 38.6041 11.5176 53.2939
658 4 8.95234 11.6283 53.2891
659 3 25.9991 0.977606 53.3673
660 4 28.8871 1.09712 53.4059
661 3 28.1125 2.31822 53.3873
662 4 31.0003 2.44027 53.4138
663 3 30.2257 3.66112 53.3948
664 4 33.1143 3.78386 53.4061
665 3 32.3399 5.00445 53.3877
666 4 35.2301 5.12607 53.3847
667 3 34.4558 6.34642 53.3678
668 4 4.79652 6.4654 53.355
669 3 36.5746 7.68561 53.3405
670 4 6.9182 7.80101 53.3239
671 3 30.3316 1.15829 53.4104
672 4 33.2206 1.28207 53.4219
673 3 32.4449 2.50219 53.4105
674 4 2.78261 2.62537 53.4059
675 3 34.5591 3.84538 53.3948
676 4 4.89827 3.96621 53.3777
