ITEM: TIMESTEP
0
ITEM: NUMBER OF ATOMS
676
ITEM: BOX BOUNDS xy xz yz pp pp pp
0.0000000000000000e+00 4.8827999796411703e+01 1.6275999938450049e+01
0.0000000000000000e+00 2.8190858943808816e+01 0.0000000000000000e+00
0.0000000000000000e+00 9.9999999999999986e+01 0.0000000000000000e+00
ITEM: ATOMS id type x y z
91 1 4.62277 7.33963 50
92 2 7.512 7.22843 50
93 1 6.83785 8.5073 50
94 2 9.72708 8.39609 50
127 1 2.31138 3.66982 50
128 2 5.20062 3.55861 50
129 1 4.52646 4.83748 50
130 2 7.41569 4.72628 50
131 1 6.74154 6.00515 50
132 2 9.63077 5.89395 50
133 1 8.95662 7.17282 50
169 1 0 0 50
171 1 2.21508 1.16767 50
172 2 5.10431 1.05646 50
173 1 4.43015 2.33534 50
174 2 7.31938 2.22413 50
175 1 6.64523 3.50301 50
176 2 9.53446 3.3918 50
177 1 8.86031 4.67067 50
213 1 6.54892 1.00086 50
214 2 9.43815 0.889652 50
215 1 8.764 2.16853 50
318 2 5.39323 8.5629 50
330 2 3.08185 4.89309 50
332 2 5.29692 6.06076 50
336 2 0.770462 1.22327 50
338 2 2.98554 2.39094 50
399 3 6.16369 9.00773 53.3
400 4 9.05292 9.11894 53.3
429 3 4.14123 5.1711 53.3
430 4 7.03046 5.28231 53.3
431 3 6.26 6.50558 53.3
432 4 9.14923 6.61679 53.3
433 3 8.37877 7.84006 53.3
465 3 0 0 53.3
466 4 2.88923 0.111207 53.3
467 3 2.11877 1.33448 53.3
468 4 5.008 1.44569 53.3
469 3 4.23754 2.66896 53.3
470 4 7.12677 2.78016 53.3
471 3 6.35631 4.00344 53.3
472 4 9.24554 4.11464 53.3
473 3 8.47508 5.33791 53.3
509 3 4.33385 0.16681 53.3
510 4 7.22308 0.278016 53.3
511 3 6.45262 1.50129 53.3
512 4 9.34185 1.61249 53.3
513 3 8.57138 2.83577 53.3
551 3 8.66769 0.33362 53.3
668 4 4.81538 6.44998 53.3
670 4 6.93415 7.78446 53.3
674 4 2.79292 2.61335 53.3
676 4 4.91169 3.94783 53.3
134 2 11.8458 7.06162 50
135 1 11.1717 8.34049 50
136 2 14.0609 8.22928 50
178 2 11.7495 4.55947 50
179 1 11.0754 5.83834 50
180 2 13.9646 5.72714 50
181 1 13.2905 7.00601 50
182 2 16.1797 6.89481 50
183 1 15.5055 8.17368 50
184 2 18.3948 8.06247 50
185 1 17.7206 9.34135 50
216 2 11.6532 2.05732 50
217 1 10.9791 3.3362 50
218 2 13.8683 3.22499 50
219 1 13.1942 4.50387 50
220 2 16.0834 4.39266 50
221 1 15.4092 5.67153 50
222 2 18.2985 5.56033 50
223 1 17.6243 6.8392 50
249 1 10.8828 0.834049 50
250 2 13.772 0.722843 50
251 1 13.0978 2.00172 50
252 2 15.9871 1.89051 50
253 1 15.3129 3.16939 50
254 2 18.2022 3.05818 50
255 1 17.528 4.33706 50
279 1 15.2166 0.667239 50
280 2 18.1058 0.556033 50
281 1 17.4317 1.83491 50
434 4 11.268 7.95127 53.3
435 3 10.4975 9.17454 53.3
436 4 13.3868 9.28575 53.3
474 4 11.3643 5.44912 53.3
475 3 10.5938 6.67239 53.3
476 4 13.4831 6.7836 53.3
477 3 12.7126 8.00687 53.3
478 4 15.6018 8.11808 53.3
479 3 14.8314 9.34135 53.3
514 4 11.4606 2.94697 53.3
515 3 10.6902 4.17025 53.3
516 4 13.5794 4.28145 53.3
517 3 12.8089 5.50472 53.3
518 4 15.6982 5.61593 53.3
519 3 14.9277 6.8392 53.3
520 4 17.8169 6.95041 53.3
521 3 17.0465 8.17368 53.3
552 4 11.5569 0.444826 53.3
553 3 10.7865 1.6681 53.3
554 4 13.6757 1.7793 53.3
555 3 12.9052 3.00258 53.3
556 4 15.7945 3.11378 53.3
557 3 15.024 4.33706 53.3
558 4 17.9132 4.44826 53.3
559 3 17.1428 5.67153 53.3
561 3 19.2615 7.00601 53.3
587 3 13.0015 0.500429 53.3
588 4 15.8908 0.611636 53.3
589 3 15.1203 1.83491 53.3
590 4 18.0095 1.94611 53.3
591 3 17.2391 3.16939 53.3
593 3 19.3578 4.50387 53.3
617 3 17.3354 0.667239 53.3
619 3 19.4542 2.00172 53.3
186 2 20.6098 9.23014 50
224 2 20.5135 6.728 50
225 1 19.8394 8.00687 50
226 2 22.7286 7.89566 50
227 1 22.0545 9.17454 50
228 2 24.9437 9.06333 50
256 2 20.4172 4.22585 50
257 1 19.7431 5.50472 50
258 2 22.6323 5.39352 50
259 1 21.9582 6.67239 50
260 2 24.8474 6.56119 50
261 1 24.1732 7.84006 50
262 2 27.0625 7.72885 50
263 1 26.3883 9.00773 50
264 2 29.2775 8.89652 50
282 2 20.3209 1.7237 50
283 1 19.6468 3.00258 50
284 2 22.536 2.89137 50
285 1 21.8618 4.17025 50
286 2 24.7511 4.05904 50
287 1 24.0769 5.33791 50
288 2 26.9662 5.22671 50
289 1 26.292 6.50558 50
290 2 29.1812 6.39438 50
291 1 28.5071 7.67325 50
303 1 19.5505 0.500429 50
304 2 22.4397 0.389223 50
305 1 21.7655 1.6681 50
306 2 24.6548 1.55689 50
307 1 23.9806 2.83577 50
308 2 26.8698 2.72456 50
309 1 26.1957 4.00344 50
310 2 29.0849 3.89223 50
311 1 28.4108 5.1711 50
321 1 23.8843 0.33362 50
322 2 26.7735 0.222413 50
323 1 26.0994 1.50129 50
324 2 28.9886 1.39008 50
325 1 28.3145 2.66896 50
333 1 28.2182 0.16681 50
522 4 19.9357 8.28489 53.3
560 4 20.032 5.78274 53.3
562 4 22.1508 7.11722 53.3
563 3 21.3803 8.34049 53.3
564 4 24.2695 8.4517 53.3
592 4 20.1283 3.28059 53.3
594 4 22.2471 4.61507 53.3
595 3 21.4766 5.83834 53.3
596 4 24.3658 5.94955 53.3
597 3 23.5954 7.17282 53.3
598 4 26.4846 7.28403 53.3
599 3 25.7142 8.5073 53.3
600 4 28.6034 8.61851 53.3
618 4 20.2246 0.778446 53.3
620 4 22.3434 2.11292 53.3
621 3 21.5729 3.3362 53.3
622 4 24.4622 3.4474 53.3
623 3 23.6917 4.67067 53.3
624 4 26.5809 4.78188 53.3
625 3 25.8105 6.00515 53.3
626 4 28.6997 6.11636 53.3
627 3 27.9292 7.33963 53.3
641 3 21.6692 0.834049 53.3
642 4 24.5585 0.945256 53.3
643 3 23.788 2.16853 53.3
644 4 26.6772 2.27973 53.3
645 3 25.9068 3.50301 53.3
646 4 28.796 3.61421 53.3
647 3 28.0255 4.83748 53.3
659 3 26.0031 1.00086 53.3
660 4 28.8923 1.11207 53.3
661 3 28.1218 2.33534 53.3
292 2 31.3963 7.56205 50
293 1 30.7222 8.84092 50
294 2 33.6114 8.72971 50
312 2 31.3 5.0599 50
313 1 30.6258 6.33877 50
314 2 33.5151 6.22757 50
315 1 32.8409 7.50644 50
316 2 35.7302 7.39524 50
317 1 35.056 8.67411 50
326 2 31.2037 2.55775 50
327 1 30.5295 3.83663 50
328 2 33.4188 3.72542 50
329 1 32.7446 5.00429 50
331 1 34.9597 6.17196 50
334 2 31.1074 0.0556033 50
335 1 30.4332 1.33448 50
337 1 32.6483 2.50215 50
628 4 30.8185 7.45084 53.3
629 3 30.048 8.67411 53.3
630 4 32.9372 8.78532 53.3
648 4 30.9148 4.94869 53.3
649 3 30.1443 6.17196 53.3
650 4 33.0335 6.28317 53.3
651 3 32.2631 7.50644 53.3
652 4 35.1523 7.61765 53.3
653 3 34.3818 8.84092 53.3
654 4 37.2711 8.95213 53.3
662 4 31.0111 2.44654 53.3
663 3 30.2406 3.66982 53.3
664 4 33.1298 3.78102 53.3
665 3 32.3594 5.00429 53.3
666 4 35.2486 5.1155 53.3
667 3 34.4782 6.33877 53.3
669 3 36.5969 7.67325 53.3
671 3 30.3369 1.16767 53.3
672 4 33.2262 1.27888 53.3
673 3 32.4557 2.50215 53.3
675 3 34.5745 3.83663 53.3
37 1 9.24554 14.6793 50
61 1 6.93415 11.0094 50
63 1 9.14923 12.1771 50
95 1 9.05292 9.67497 50
300 2 7.70462 12.2327 50
320 2 7.60831 9.73057 50
375 3 8.18615 12.8444 53.3
401 3 8.28246 10.3422 53.3
638 4 8.86031 14.1232 53.3
656 4 6.83785 10.2866 53.3
658 4 8.95662 11.6211 53.3
19 1 11.5569 18.3491 50
20 2 14.4462 18.2379 50
38 2 12.1348 14.5681 50
39 1 11.4606 15.8469 50
40 2 14.3498 15.7357 50
41 1 13.6757 17.0146 50
42 2 16.5649 16.9034 50
43 1 15.8908 18.1823 50
44 2 18.78 18.0711 50
62 2 9.82338 10.8982 50
64 2 12.0385 12.0659 50
65 1 11.3643 13.3448 50
66 2 14.2535 13.2336 50
67 1 13.5794 14.5125 50
68 2 16.4686 14.4012 50
69 1 15.7945 15.6801 50
70 2 18.6837 15.5689 50
71 1 18.0095 16.8478 50
96 2 11.9422 9.56376 50
97 1 11.268 10.8426 50
98 2 14.1572 10.7314 50
99 1 13.4831 12.0103 50
100 2 16.3723 11.8991 50
101 1 15.6982 13.178 50
102 2 18.5874 13.0668 50
103 1 17.9132 14.3456 50
137 1 13.3868 9.50816 50
138 2 16.276 9.39695 50
139 1 15.6018 10.6758 50
140 2 18.4911 10.5646 50
141 1 17.8169 11.8435 50
276 2 10.016 15.9025 50
278 2 12.2311 17.0702 50
302 2 9.91969 13.4004 50
357 3 10.2086 16.681 53.3
358 4 13.0978 16.7922 53.3
359 3 12.3274 18.0155 53.3
360 4 15.2166 18.1267 53.3
376 4 11.0754 12.9556 53.3
377 3 10.3049 14.1788 53.3
378 4 13.1942 14.29 53.3
379 3 12.4237 15.5133 53.3
380 4 15.3129 15.6245 53.3
381 3 14.5425 16.8478 53.3
382 4 17.4317 16.959 53.3
383 3 16.6612 18.1823 53.3
402 4 11.1717 10.4534 53.3
403 3 10.4012 11.6767 53.3
404 4 13.2905 11.7879 53.3
405 3 12.52 13.0112 53.3
406 4 15.4092 13.1224 53.3
407 3 14.6388 14.3456 53.3
408 4 17.528 14.4569 53.3
409 3 16.7575 15.6801 53.3
411 3 18.8763 17.0146 53.3
437 3 12.6163 10.509 53.3
438 4 15.5055 10.6202 53.3
439 3 14.7351 11.8435 53.3
440 4 17.6243 11.9547 53.3
441 3 16.8538 13.178 53.3
443 3 18.9726 14.5125 53.3
480 4 17.7206 9.45256 53.3
481 3 16.9502 10.6758 53.3
483 3 19.0689 12.0103 53.3
523 3 19.1652 9.50816 53.3
614 4 10.8828 17.9599 53.3
640 4 10.9791 15.4577 53.3
72 2 20.8988 16.7366 50
73 1 20.2246 18.0155 50
74 2 23.1138 17.9043 50
104 2 20.8025 14.2344 50
105 1 20.1283 15.5133 50
106 2 23.0175 15.4021 50
107 1 22.3434 16.681 50
108 2 25.2326 16.5698 50
109 1 24.5585 17.8487 50
110 2 27.4477 17.7374 50
142 2 20.7062 11.7323 50
143 1 20.032 13.0112 50
144 2 22.9212 12.9 50
145 1 22.2471 14.1788 50
146 2 25.1363 14.0676 50
147 1 24.4622 15.3465 50
148 2 27.3514 15.2353 50
149 1 26.6772 16.5142 50
151 1 28.8923 17.6818 50
187 1 19.9357 10.509 50
188 2 22.8249 10.3978 50
189 1 22.1508 11.6767 50
190 2 25.04 11.5655 50
191 1 24.3658 12.8444 50
192 2 27.2551 12.7331 50
193 1 26.5809 14.012 50
195 1 28.796 15.1797 50
229 1 24.2695 10.3422 50
230 2 27.1588 10.231 50
231 1 26.4846 11.5099 50
233 1 28.6997 12.6775 50
265 1 28.6034 10.1754 50
384 4 19.5505 18.2935 53.3
410 4 19.6468 15.7913 53.3
412 4 21.7655 17.1258 53.3
413 3 20.9951 18.3491 53.3
414 4 23.8843 18.4603 53.3
442 4 19.7431 13.2892 53.3
444 4 21.8618 14.6237 53.3
445 3 21.0914 15.8469 53.3
446 4 23.9806 15.9581 53.3
447 3 23.2102 17.1814 53.3
448 4 26.0994 17.2926 53.3
449 3 25.3289 18.5159 53.3
450 4 28.2182 18.6271 53.3
482 4 19.8394 10.787 53.3
484 4 21.9582 12.1215 53.3
485 3 21.1877 13.3448 53.3
486 4 24.0769 13.456 53.3
487 3 23.3065 14.6793 53.3
488 4 26.1957 14.7905 53.3
489 3 25.4252 16.0137 53.3
490 4 28.3145 16.1249 53.3
491 3 27.544 17.3482 53.3
524 4 22.0545 9.61937 53.3
525 3 21.284 10.8426 53.3
526 4 24.1732 10.9538 53.3
527 3 23.4028 12.1771 53.3
528 4 26.292 12.2883 53.3
529 3 25.5215 13.5116 53.3
530 4 28.4108 13.6228 53.3
531 3 27.6403 14.8461 53.3
565 3 23.4991 9.67497 53.3
566 4 26.3883 9.78618 53.3
567 3 25.6178 11.0094 53.3
568 4 28.5071 11.1207 53.3
569 3 27.7366 12.3439 53.3
601 3 27.8329 9.84178 53.3
150 2 29.5665 16.403 50
152 2 31.7815 17.5706 50
154 2 33.9966 18.7383 50
194 2 29.4702 13.9008 50
196 2 31.6852 15.0685 50
197 1 31.0111 16.3474 50
198 2 33.9003 16.2362 50
199 1 33.2262 17.515 50
200 2 36.1154 17.4038 50
201 1 35.4412 18.6827 50
202 2 38.3305 18.5715 50
232 2 29.3738 11.3987 50
234 2 31.5889 12.5663 50
235 1 30.9148 13.8452 50
236 2 33.804 13.734 50
237 1 33.1298 15.0129 50
238 2 36.0191 14.9017 50
239 1 35.3449 16.1806 50
240 2 38.2342 16.0693 50
241 1 37.56 17.3482 50
266 2 31.4926 10.0642 50
267 1 30.8185 11.3431 50
268 2 33.7077 11.2319 50
269 1 33.0335 12.5107 50
270 2 35.9228 12.3995 50
271 1 35.2486 13.6784 50
272 2 38.1378 13.5672 50
273 1 37.4637 14.8461 50
295 1 32.9372 10.0086 50
296 2 35.8265 9.89738 50
297 1 35.1523 11.1763 50
298 2 38.0415 11.0651 50
299 1 37.3674 12.3439 50
319 1 37.2711 9.84178 50
492 4 30.4332 17.4594 53.3
493 3 29.6628 18.6827 53.3
494 4 32.552 18.7939 53.3
532 4 30.5295 14.9573 53.3
533 3 29.7591 16.1806 53.3
534 4 32.6483 16.2918 53.3
535 3 31.8778 17.515 53.3
536 4 34.7671 17.6262 53.3
570 4 30.6258 12.4551 53.3
571 3 29.8554 13.6784 53.3
572 4 32.7446 13.7896 53.3
573 3 31.9742 15.0129 53.3
574 4 34.8634 15.1241 53.3
575 3 34.0929 16.3474 53.3
576 4 36.9822 16.4586 53.3
577 3 36.2117 17.6818 53.3
602 4 30.7222 9.95299 53.3
603 3 29.9517 11.1763 53.3
604 4 32.8409 11.2875 53.3
605 3 32.0705 12.5107 53.3
606 4 34.9597 12.6219 53.3
607 3 34.1892 13.8452 53.3
608 4 37.0785 13.9564 53.3
609 3 36.308 15.1797 53.3
611 3 38.4268 16.5142 53.3
631 3 32.1668 10.0086 53.3
632 4 35.056 10.1198 53.3
633 3 34.2855 11.3431 53.3
634 4 37.1748 11.4543 53.3
635 3 36.4043 12.6775 53.3
637 3 38.5231 14.012 53.3
655 3 36.5006 10.1754 53.3
657 3 38.6194 11.5099 53.3
242 2 40.4492 17.237 50
243 1 39.7751 18.5159 50
244 2 42.6643 18.4047 50
274 2 40.3529 14.7349 50
275 1 39.6788 16.0137 50
277 1 41.8938 17.1814 50
301 1 39.5825 13.5116 50
578 4 39.1009 17.793 53.3
610 4 39.1972 15.2909 53.3
612 4 41.316 16.6254 53.3
613 3 40.5455 17.8487 53.3
636 4 39.2935 12.7888 53.3
639 3 40.6418 15.3465 53.3
1 1 16.1797 25.6887 50
2 2 19.0689 25.5775 50
3 1 18.3948 26.8564 50
7 1 13.8683 22.0189 50
8 2 16.7575 21.9077 50
9 1 16.0834 23.1866 50
10 2 18.9726 23.0754 50
11 1 18.2985 24.3542 50
21 1 13.772 19.5167 50
22 2 16.6612 19.4055 50
23 1 15.9871 20.6844 50
24 2 18.8763 20.5732 50
25 1 18.2022 21.8521 50
45 1 18.1058 19.3499 50
168 2 16.9502 26.912 50
170 2 19.1652 28.0797 50
210 2 14.6388 23.2422 50
212 2 16.8538 24.4098 50
246 2 12.3274 19.5724 50
248 2 14.5425 20.74 50
339 3 14.2535 24.3542 53.3
340 4 17.1428 24.4654 53.3
341 3 16.3723 25.6887 53.3
342 4 19.2615 25.7999 53.3
343 3 18.4911 27.0232 53.3
345 3 12.2311 20.5176 53.3
346 4 15.1203 20.6288 53.3
347 3 14.3498 21.8521 53.3
348 4 17.2391 21.9633 53.3
349 3 16.4686 23.1866 53.3
350 4 19.3578 23.2978 53.3
351 3 18.5874 24.521 53.3
361 3 14.4462 19.3499 53.3
362 4 17.3354 19.4611 53.3
363 3 16.5649 20.6844 53.3
364 4 19.4542 20.7956 53.3
365 3 18.6837 22.0189 53.3
385 3 18.78 19.5167 53.3
548 4 14.9277 25.6331 53.3
550 4 17.0465 26.9676 53.3
584 4 12.9052 21.7965 53.3
586 4 15.024 23.131 53.3
616 4 13.0015 19.2943 53.3
4 2 21.284 26.7452 50
5 1 20.6098 28.024 50
6 2 23.4991 27.9128 50
12 2 21.1877 24.243 50
13 1 20.5135 25.5219 50
14 2 23.4028 25.4107 50
15 1 22.7286 26.6896 50
16 2 25.6178 26.5784 50
17 1 24.9437 27.8572 50
18 2 27.8329 27.746 50
26 2 21.0914 21.7409 50
27 1 20.4172 23.0198 50
28 2 23.3065 22.9085 50
29 1 22.6323 24.1874 50
30 2 25.5215 24.0762 50
31 1 24.8474 25.3551 50
32 2 27.7366 25.2439 50
33 1 27.0625 26.5228 50
35 1 29.2775 27.6904 50
46 2 20.9951 19.2387 50
47 1 20.3209 20.5176 50
48 2 23.2102 20.4064 50
49 1 22.536 21.6853 50
50 2 25.4252 21.5741 50
51 1 24.7511 22.8529 50
52 2 27.6403 22.7417 50
53 1 26.9662 24.0206 50
55 1 29.1812 25.1883 50
75 1 22.4397 19.1831 50
76 2 25.3289 19.0719 50
77 1 24.6548 20.3508 50
78 2 27.544 20.2396 50
79 1 26.8698 21.5185 50
81 1 29.0849 22.6861 50
111 1 26.7735 19.0163 50
113 1 28.9886 20.184 50
344 4 21.3803 27.1344 53.3
352 4 21.4766 24.6322 53.3
353 3 20.7062 25.8555 53.3
354 4 23.5954 25.9667 53.3
355 3 22.8249 27.19 53.3
356 4 25.7142 27.3012 53.3
366 4 21.5729 22.1301 53.3
367 3 20.8025 23.3534 53.3
368 4 23.6917 23.4646 53.3
369 3 22.9212 24.6879 53.3
370 4 25.8105 24.7991 53.3
371 3 25.04 26.0223 53.3
372 4 27.9292 26.1335 53.3
373 3 27.1588 27.3568 53.3
386 4 21.6692 19.628 53.3
387 3 20.8988 20.8512 53.3
388 4 23.788 20.9624 53.3
389 3 23.0175 22.1857 53.3
390 4 25.9068 22.2969 53.3
391 3 25.1363 23.5202 53.3
392 4 28.0255 23.6314 53.3
393 3 27.2551 24.8547 53.3
415 3 23.1138 19.6836 53.3
416 4 26.0031 19.7948 53.3
417 3 25.2326 21.018 53.3
418 4 28.1218 21.1292 53.3
419 3 27.3514 22.3525 53.3
451 3 27.4477 19.8504 53.3
34 2 29.9517 26.4116 50
36 2 32.1668 27.5792 50
54 2 29.8554 23.9094 50
56 2 32.0705 25.0771 50
57 1 31.3963 26.356 50
58 2 34.2855 26.2447 50
59 1 33.6114 27.5236 50
60 2 36.5006 27.4124 50
80 2 29.7591 21.4073 50
82 2 31.9742 22.5749 50
83 1 31.3 23.8538 50
84 2 34.1892 23.7426 50
85 1 33.5151 25.0215 50
86 2 36.4043 24.9103 50
87 1 35.7302 26.1891 50
88 2 38.6194 26.0779 50
89 1 37.9452 27.3568 50
112 2 29.6628 18.9051 50
114 2 31.8778 20.0728 50
115 1 31.2037 21.3517 50
116 2 34.0929 21.2404 50
117 1 33.4188 22.5193 50
118 2 36.308 22.4081 50
119 1 35.6338 23.687 50
120 2 38.5231 23.5758 50
121 1 37.8489 24.8547 50
153 1 31.1074 18.8495 50
155 1 33.3225 20.0172 50
156 2 36.2117 19.906 50
157 1 35.5375 21.1848 50
158 2 38.4268 21.0736 50
159 1 37.7526 22.3525 50
203 1 37.6563 19.8504 50
374 4 30.048 27.468 53.3
394 4 30.1443 24.9659 53.3
395 3 29.3738 26.1891 53.3
396 4 32.2631 26.3003 53.3
397 3 31.4926 27.5236 53.3
398 4 34.3818 27.6348 53.3
420 4 30.2406 22.4637 53.3
421 3 29.4702 23.687 53.3
422 4 32.3594 23.7982 53.3
423 3 31.5889 25.0215 53.3
424 4 34.4782 25.1327 53.3
425 3 33.7077 26.356 53.3
426 4 36.5969 26.4672 53.3
427 3 35.8265 27.6904 53.3
428 4 38.7157 27.8016 53.3
452 4 30.3369 19.9616 53.3
453 3 29.5665 21.1848 53.3
454 4 32.4557 21.2961 53.3
455 3 31.6852 22.5193 53.3
456 4 34.5745 22.6305 53.3
457 3 33.804 23.8538 53.3
458 4 36.6932 23.965 53.3
459 3 35.9228 25.1883 53.3
460 4 38.812 25.2995 53.3
461 3 38.0415 26.5228 53.3
495 3 31.7815 20.0172 53.3
496 4 34.6708 20.1284 53.3
497 3 33.9003 21.3517 53.3
498 4 36.7895 21.4629 53.3
499 3 36.0191 22.6861 53.3
500 4 38.9083 22.7973 53.3
501 3 38.1378 24.0206 53.3
537 3 33.9966 18.8495 53.3
538 4 36.8858 18.9607 53.3
539 3 36.1154 20.184 53.3
540 4 39.0046 20.2952 53.3
541 3 38.2342 21.5185 53.3
579 3 38.3305 19.0163 53.3
90 2 40.8345 27.2456 50
122 2 40.7382 24.7435 50
123 1 40.064 26.0223 50
124 2 42.9532 25.9111 50
125 1 42.2791 27.19 50
126 2 45.1683 27.0788 50
160 2 40.6418 22.2413 50
161 1 39.9677 23.5202 50
162 2 42.8569 23.409 50
163 1 42.1828 24.6879 50
164 2 45.072 24.5766 50
165 1 44.3978 25.8555 50
166 2 47.2871 25.7443 50
167 1 46.6129 27.0232 50
204 2 40.5455 19.7392 50
205 1 39.8714 21.018 50
206 2 42.7606 20.9068 50
207 1 42.0865 22.1857 50
208 2 44.9757 22.0745 50
209 1 44.3015 23.3534 50
211 1 46.5166 24.521 50
245 1 41.9902 19.6836 50
247 1 44.2052 20.8512 50
462 4 40.9308 26.634 53.3
463 3 40.1603 27.8572 53.3
464 4 43.0495 27.9684 53.3
502 4 41.0271 24.1318 53.3
503 3 40.2566 25.3551 53.3
504 4 43.1458 25.4663 53.3
505 3 42.3754 26.6896 53.3
506 4 45.2646 26.8008 53.3
507 3 44.4942 28.024 53.3
508 4 47.3834 28.1353 53.3
542 4 41.1234 21.6297 53.3
543 3 40.3529 22.8529 53.3
544 4 43.2422 22.9642 53.3
545 3 42.4717 24.1874 53.3
546 4 45.3609 24.2986 53.3
547 3 44.5905 25.5219 53.3
549 3 46.7092 26.8564 53.3
580 4 41.2197 19.1275 53.3
581 3 40.4492 20.3508 53.3
582 4 43.3385 20.462 53.3
583 3 42.568 21.6853 53.3
585 3 44.6868 23.0198 53.3
615 3 42.6643 19.1831 53.3
ITEM: TIMESTEP
100
ITEM: NUMBER OF ATOMS
676
ITEM: BOX BOUNDS xy xz yz pp pp pp
0.0000000000000000e+00 4.8827999796411703e+01 1.6275999938450049e+01
0.0000000000000000e+00 2.8190858943808816e+01 0.0000000000000000e+00
0.0000000000000000e+00 9.9999999999999986e+01 0.0000000000000000e+00
ITEM: ATOMS id type x y z
91 1 4.64589 7.32563 49.9631
92 2 7.52781 7.21064 49.9878
93 1 6.85673 8.49194 49.984
94 2 9.73708 8.38108 50.0083
127 1 2.32802 3.65992 49.9238
128 2 5.21429 3.53868 49.9475
129 1 4.54553 4.8206 49.9434
130 2 7.42962 4.70376 49.9724
131 1 6.76005 5.98526 49.9672
132 2 9.64248 5.87337 49.9967
133 1 8.97156 7.15421 49.9903
169 1 -1.86944e-10 5.25137e-10 49.9068
171 1 2.22097 1.15732 49.9127
172 2 5.10904 1.03496 49.9376
173 1 4.4408 2.31681 49.9291
174 2 7.32726 2.1987 49.9606
175 1 6.65853 3.48014 49.9522
176 2 9.54339 3.36729 49.9852
177 1 8.8737 4.64813 49.9772
213 1 6.55354 0.976566 49.9433
214 2 9.44104 0.863098 49.9781
215 1 8.77165 2.14361 49.9669
318 2 5.41308 8.55085 49.984
330 2 3.10129 4.88148 49.9426
332 2 5.3161 6.04403 49.9644
336 2 0.776427 1.21973 49.9156
338 2 2.99638 2.37779 49.9271
399 3 6.14418 9.02184 53.3167
400 4 9.04318 9.13312 53.294
429 3 4.12168 5.18735 53.3568
430 4 7.01592 5.30436 53.3285
431 3 6.24093 6.52468 53.3336
432 4 9.13728 6.63697 53.3049
433 3 8.36354 7.85788 53.3113
465 3 -5.60357e-09 -8.58744e-09 53.3932
466 4 2.88904 0.124789 53.3786
467 3 2.11265 1.34468 53.3873
468 4 5.00259 1.46705 53.3625
469 3 4.22642 2.68719 53.3711
470 4 7.11799 2.8054 53.3399
471 3 6.34239 4.02591 53.3483
472 4 9.23573 4.13903 53.3156
473 3 8.46116 5.36014 53.3238
509 3 4.33361 0.185782 53.3762
510 4 7.22256 0.304379 53.344
511 3 6.44731 1.52547 53.3569
512 4 9.33765 1.63903 53.3221
513 3 8.56294 2.86061 53.3335
551 3 8.66723 0.359319 53.3371
668 4 4.79573 6.46601 53.3359
670 4 6.918 7.80144 53.3133
674 4 2.78172 2.62622 53.373
676 4 4.89743 3.96735 53.3528
134 2 11.8536 7.04673 50.0162
135 1 11.1808 8.32658 50.0086
136 2 14.0644 8.22202 50.0283
178 2 11.7577 4.54044 50.0069
179 1 11.0865 5.82044 49.9994
180 2 13.9711 5.7167 50.0221
181 1 13.2978 6.9956 50.0152
182 2 16.1847 6.89374 50.0291
183 1 15.5089 8.17135 50.0229
184 2 18.3993 8.0691 50.0283
185 1 17.721 9.34541 50.0229
216 2 11.658 2.0356 49.999
217 1 10.9877 3.31553 49.9897
218 2 13.8738 3.21206 50.0146
219 1 13.2022 4.49123 50.0074
220 2 16.0893 4.39035 50.0227
221 1 15.4158 5.66858 50.0176
222 2 18.3053 5.56782 50.0226
223 1 17.6297 6.84504 50.0197
249 1 10.8857 0.811908 49.9836
250 2 13.7734 0.708423 50.0098
251 1 13.1026 1.98757 50.0006
252 2 15.9902 1.88709 50.0169
253 1 15.3185 3.16578 50.0109
254 2 18.2073 3.06582 50.016
255 1 17.5342 4.34396 50.0134
279 1 15.2182 0.662982 50.0067
280 2 18.1066 0.563329 50.0123
281 1 17.4351 1.8421 50.0079
434 4 11.2609 7.96606 53.2862
435 3 10.4889 9.18788 53.2941
436 4 13.3854 9.29347 53.2749
474 4 11.3557 5.46834 53.2942
475 3 10.5827 6.69033 53.3022
476 4 13.4771 6.79484 53.279
477 3 12.7063 8.018 53.2868
478 4 15.5988 8.1208 53.2717
479 3 14.8305 9.34535 53.2793
514 4 11.4545 2.96889 53.3013
515 3 10.6809 4.19115 53.311
516 4 13.5729 4.29507 53.2854
517 3 12.8009 5.51827 53.2931
518 4 15.692 5.61972 53.2765
519 3 14.9221 6.84406 53.2824
520 4 17.8109 6.94535 53.2749
521 3 17.0434 8.17094 53.2793
552 4 11.5561 0.467562 53.3041
553 3 10.7825 1.69036 53.3166
554 4 13.6723 1.794 53.2901
555 3 12.8995 3.01734 53.2994
556 4 15.7893 3.11807 53.2822
557 3 15.0178 4.34212 53.2882
558 4 17.9063 4.44232 53.2813
559 3 17.1366 5.66722 53.2843
561 3 19.2551 6.99494 53.2868
587 3 13.0009 0.515333 53.302
588 4 15.8894 0.61578 53.285
589 3 15.1171 1.83971 53.2928
590 4 18.0054 1.93942 53.2865
591 3 17.2339 3.16366 53.2903
593 3 19.3506 4.48971 53.2941
617 3 17.3342 0.660488 53.2935
619 3 19.45 1.98546 53.3001
186 2 20.6156 9.24102 50.0221
224 2 20.5225 6.7422 50.0162
225 1 19.8447 8.01846 50.0152
226 2 22.741 7.91228 50.0069
227 1 22.0614 9.18779 50.0074
228 2 24.9601 9.07828 49.999
256 2 20.4252 4.24202 50.0083
257 1 19.7506 5.51958 50.0086
258 2 22.6443 5.41394 49.9967
259 1 21.9681 6.69099 49.9994
260 2 24.8642 6.58117 49.9852
261 1 24.1868 7.85789 49.9897
262 2 27.084 7.74463 49.9781
263 1 26.406 9.0213 49.9836
264 2 29.3026 8.90616 49.9779
282 2 20.3245 1.74062 50.0025
283 1 19.6523 3.01931 50.0017
284 2 22.5435 2.91395 49.9878
285 1 21.8705 4.1925 49.9903
286 2 24.7636 4.08236 49.9724
287 1 24.0898 5.36079 49.9772
288 2 26.9842 5.24624 49.9606
289 1 26.3098 6.52466 49.9669
290 2 29.2043 6.40711 49.956
291 1 28.5296 7.68571 49.9629
303 1 19.5514 0.5176 49.9982
304 2 22.4402 0.412442 49.984
305 1 21.7694 1.69214 49.984
306 2 24.6597 1.58186 49.9644
307 1 23.9886 2.86174 49.9672
308 2 26.8803 2.74637 49.9475
309 1 26.2088 4.02639 49.9522
310 2 29.1012 3.90708 49.9376
311 1 28.4295 5.18725 49.9433
321 1 23.8849 0.360647 49.9631
322 2 26.7739 0.245055 49.9426
323 1 26.1045 1.52625 49.9434
324 2 28.9946 1.40605 49.9271
325 1 28.3252 2.68744 49.9291
333 1 28.2184 0.186164 49.9238
522 4 19.929 8.27408 53.279
560 4 20.0228 5.76915 53.2862
562 4 22.1384 7.10014 53.2942
563 3 21.3726 8.32673 53.2931
564 4 24.2536 8.43548 53.3013
592 4 20.1209 3.26506 53.294
594 4 22.2356 4.59463 53.3049
595 3 21.4667 5.81972 53.3022
596 4 24.3496 5.92886 53.3156
597 3 23.5819 7.15432 53.311
598 4 26.4637 7.26713 53.3221
599 3 25.6968 8.49276 53.3166
600 4 28.5789 8.60773 53.3219
618 4 20.2222 0.761788 53.2985
620 4 22.3368 2.09044 53.3133
621 3 21.5651 3.3141 53.3113
622 4 24.4503 3.42379 53.3285
623 3 23.6794 4.64751 53.3238
624 4 26.5635 4.76166 53.3399
625 3 25.7932 5.98542 53.3335
626 4 28.6771 6.10273 53.344
627 3 27.9072 7.32639 53.3371
641 3 21.6668 0.810097 53.3167
642 4 24.5544 0.920217 53.3359
643 3 23.781 2.14247 53.3336
644 4 26.6675 2.25762 53.3528
645 3 25.8943 3.47971 53.3483
646 4 28.7802 3.59884 53.3625
647 3 28.0072 4.8208 53.3569
659 3 25.9988 0.975801 53.3568
660 4 28.8868 1.09593 53.373
661 3 28.1116 2.3166 53.3711
292 2 31.4225 7.56706 49.9601
293 1 30.7479 8.84602 49.9665
294 2 33.6377 8.72815 49.9715
312 2 31.3212 5.06589 49.9375
313 1 30.6494 6.34627 49.9431
314 2 33.5391 6.22497 49.9472
315 1 32.8673 7.50562 49.9517
316 2 35.7539 7.38622 49.9641
317 1 35.0821 8.66715 49.9664
326 2 31.2155 2.56438 49.9214
327 1 30.5461 3.84591 49.9238
328 2 33.4355 3.72215 49.927
329 1 32.766 5.00379 49.9289
331 1 34.9835 6.16316 49.9432
334 2 31.1075 0.0625417 49.9156
335 1 30.4392 1.34475 49.9127
337 1 32.6602 2.50195 49.9127
628 4 30.7925 7.44494 53.3394
629 3 30.0226 8.66828 53.3331
630 4 32.9108 8.78612 53.3276
648 4 30.8938 4.94204 53.3624
649 3 30.121 6.16381 53.3567
650 4 33.0094 6.28505 53.3525
651 3 32.2366 7.50653 53.3478
652 4 35.1282 7.62589 53.3356
653 3 34.3554 8.84701 53.3328
654 4 37.2507 8.96329 53.316
662 4 30.9994 2.43959 53.3786
663 3 30.2243 3.66013 53.3762
664 4 33.113 3.78384 53.3729
665 3 32.338 5.00426 53.3709
666 4 35.2288 5.12654 53.3574
667 3 34.454 6.34684 53.3566
669 3 36.5732 7.68627 53.3369
671 3 30.3311 1.15726 53.3873
672 4 33.2201 1.28227 53.3844
673 3 32.4438 2.50208 53.3873
675 3 34.5576 3.84608 53.3762
37 1 9.24106 14.68 50.0067
61 1 6.94856 11.0001 49.9982
63 1 9.15375 12.1706 50.0079
95 1 9.06462 9.66177 50.0017
300 2 7.71057 12.2284 50.0123
320 2 7.62119 9.71904 50.0025
375 3 8.1809 12.8488 53.2935
401 3 8.27046 10.3539 53.3001
638 4 8.86458 14.1223 53.285
656 4 6.82463 10.297 53.2985
658 4 8.95288 11.628 53.2865
19 1 11.5363 18.3577 49.9836
20 2 14.4205 18.2424 49.9852
38 2 12.1208 14.5698 50.0146
39 1 11.446 15.8499 50.0006
40 2 14.3293 15.7381 50.0069
41 1 13.6535 17.0174 49.9897
42 2 16.5413 16.9035 49.9967
43 1 15.8645 18.1819 49.9772
44 2 18.7567 18.0663 49.9878
62 2 9.82743 10.89 50.016
64 2 12.0335 12.062 50.0227
65 1 11.3584 13.3418 50.0109
66 2 14.2412 13.2331 50.0221
67 1 13.5644 14.5118 50.0074
68 2 16.4518 14.4019 50.0162
69 1 15.7734 15.6794 49.9994
70 2 18.6657 15.5678 50.0083
71 1 17.9859 16.8442 49.9903
96 2 11.9452 9.55408 50.0226
97 1 11.2709 10.8338 50.0134
98 2 14.1538 10.7276 50.0291
99 1 13.4772 12.0061 50.0176
100 2 16.3643 11.8997 50.0283
101 1 15.6854 13.1768 50.0152
102 2 18.5775 13.069 50.0226
103 1 17.8966 14.3447 50.0086
137 1 13.3892 9.5006 50.0197
138 2 16.276 9.39695 50.0321
139 1 15.5982 10.6741 50.0229
140 2 18.4895 10.5695 50.0291
141 1 17.8092 11.8452 50.0197
276 2 10.0028 15.9085 50.0098
278 2 12.2099 17.077 49.999
302 2 9.91515 13.3994 50.0169
357 3 10.2219 16.6741 53.302
358 4 13.1199 16.7865 53.3013
359 3 12.3486 18.0077 53.3166
360 4 15.2426 18.123 53.3156
376 4 11.0817 12.9579 53.2822
377 3 10.3107 14.1792 53.2928
378 4 13.2092 14.2888 53.2854
379 3 12.4393 15.5109 53.2994
380 4 15.3339 15.6224 53.2942
381 3 14.5652 16.8454 53.311
382 4 17.4551 16.9593 53.3049
383 3 16.6874 18.1832 53.3238
402 4 11.17 10.4624 53.2813
403 3 10.3988 11.684 53.2903
404 4 13.2968 11.7913 53.2765
405 3 12.5275 13.014 53.2882
406 4 15.422 13.1219 53.279
407 3 14.6545 14.3459 53.2931
408 4 17.5444 14.4556 53.2862
409 3 16.7786 15.6808 53.3022
411 3 18.8993 17.0189 53.3113
437 3 12.6156 10.5165 53.2843
438 4 15.5094 10.6215 53.2717
439 3 14.7421 11.8459 53.2824
440 4 17.6317 11.952 53.2749
441 3 16.8667 13.1779 53.2868
443 3 18.9885 14.5133 53.2941
480 4 17.7198 9.44858 53.2717
481 3 16.954 10.6746 53.2793
483 3 19.0757 12.0071 53.2843
523 3 19.1638 9.50088 53.2824
614 4 10.9029 17.9492 53.3041
640 4 10.9935 15.4533 53.2901
72 2 20.8823 16.7312 50.0025
73 1 20.2019 18.0068 49.984
74 2 23.1006 17.8938 50.0015
104 2 20.7933 14.2351 50.016
105 1 20.111 15.5098 50.0017
106 2 23.0109 15.3991 50.0123
107 1 22.3281 16.6732 49.9982
108 2 25.2289 16.5629 50.0135
109 1 24.5465 17.8369 49.9999
110 2 27.446 17.7285 50.0187
142 2 20.7052 11.7385 50.0227
143 1 20.0229 13.0131 50.0134
144 2 22.9226 12.9044 50.0169
145 1 22.2391 14.1782 50.0079
146 2 25.1406 14.0685 50.015
147 1 24.4569 15.3421 50.0065
148 2 27.3577 15.2329 50.0178
149 1 26.6748 16.5069 50.0097
151 1 28.8916 17.6744 50.0157
187 1 19.935 10.5162 50.0176
188 2 22.8334 10.409 50.0146
189 1 22.1511 11.6833 50.0109
190 2 25.0518 11.5739 50.0098
191 1 24.3687 12.8479 50.0067
192 2 27.2695 12.7375 50.0099
193 1 26.5867 14.0117 50.0072
195 1 28.8035 15.1769 50.0118
229 1 24.2794 10.3534 50.0006
230 2 27.1789 10.2416 49.9959
231 1 26.4979 11.5167 49.998
233 1 28.7153 12.68 50.0006
265 1 28.6246 10.1831 49.9834
384 4 19.5732 18.299 53.3133
410 4 19.6639 15.7927 53.294
412 4 21.7812 17.132 53.2985
413 3 21.0171 18.3589 53.3167
414 4 23.8972 18.4718 53.2975
442 4 19.7517 13.2861 53.2813
444 4 21.8697 14.6234 53.2865
445 3 21.1075 15.8515 53.3001
446 4 23.9866 15.9624 53.2877
447 3 23.2246 17.1908 53.3018
448 4 26.1034 17.3009 53.284
449 3 25.3406 18.5291 53.2983
450 4 28.2212 18.6368 53.2774
482 4 19.8392 10.7798 53.2765
484 4 21.957 12.1149 53.2822
485 3 21.1952 13.3432 53.2903
486 4 24.074 13.4527 53.285
487 3 23.3129 14.6816 53.2935
488 4 26.1911 14.7915 53.2831
489 3 25.4297 16.0203 53.2921
490 4 28.3095 16.1289 53.2773
491 3 27.5469 17.3571 53.2866
524 4 22.0459 9.60694 53.2854
525 3 21.2827 10.8347 53.2882
526 4 24.1622 10.9436 53.2901
527 3 23.4002 12.172 53.2928
528 4 26.2788 12.2823 53.2902
529 3 25.5171 13.5108 53.2933
530 4 28.3968 13.6211 53.2854
531 3 27.6344 14.8491 53.2891
565 3 23.4892 9.66264 53.2994
566 4 26.369 9.77406 53.3041
567 3 25.6053 11.0014 53.302
568 4 28.4859 11.1139 53.301
569 3 27.722 12.3409 53.2994
601 3 27.8123 9.83321 53.3164
150 2 29.5728 16.3995 50.0235
152 2 31.7854 17.5694 50.0283
154 2 33.9958 18.7423 50.0283
194 2 29.4852 13.902 50.0146
196 2 31.698 15.0689 50.021
197 1 31.0181 16.3449 50.0176
198 2 33.9077 16.2388 50.0251
199 1 33.23 17.5163 50.0207
200 2 36.1152 17.411 50.0235
201 1 35.4398 18.69 50.0176
202 2 38.3219 18.5839 50.0146
232 2 29.3959 11.4044 49.9987
234 2 31.6099 12.5685 50.0058
235 1 30.9305 13.845 50.0069
236 2 33.8204 13.7352 50.0138
237 1 33.1427 15.0129 50.0132
238 2 36.0277 14.9047 50.0187
239 1 35.3517 16.1837 50.0157
240 2 38.233 16.076 50.0178
241 1 37.5587 17.3561 50.0118
266 2 31.5186 10.0679 49.9844
267 1 30.8412 11.3455 49.989
268 2 33.7311 11.2316 49.9951
269 1 33.0546 12.5101 49.9978
270 2 35.9399 12.3982 50.006
271 1 35.2645 13.6776 50.0059
272 2 38.1457 13.5674 50.0135
273 1 37.4712 14.8477 50.0097
295 1 32.9634 10.0076 49.9762
296 2 35.8492 9.89188 49.9867
297 1 35.1753 11.172 49.9887
298 2 38.0572 11.0588 50.0015
299 1 37.3835 12.3394 49.9999