ITEM: TIMESTEP
342
ITEM: NUMBER OF ATOMS
676
ITEM: BOX BOUNDS xy xz yz pp pp pp
0.0000000000000000e+00 4.8827999796411703e+01 1.6275999938450049e+01
0.0000000000000000e+00 2.8190858943808816e+01 0.0000000000000000e+00
0.0000000000000000e+00 9.9999999999999986e+01 0.0000000000000000e+00
ITEM: ATOMS id type x y z
1 1 16.1688 25.6887 49.8839
2 2 19.0587 25.5656 49.9005
3 1 18.3893 26.847 49.8838
4 2 21.2791 26.7254 49.9151
5 1 20.6098 28.0066 49.8992
6 2 23.4987 27.8882 49.9407
7 1 13.8465 22.0264 49.9263
8 2 16.7351 21.9058 49.9291
9 1 16.0636 23.1865 49.9067
10 2 18.9543 23.065 49.9221
11 1 18.283 24.3454 49.8993
12 2 21.1745 24.2248 49.9283
13 1 20.5034 25.505 49.9063
14 2 23.3946 25.387 49.946
15 1 22.7238 26.667 49.9259
16 2 25.6139 26.5533 49.97
17 1 24.9434 27.833 49.9528
18 2 27.8322 27.7243 49.9939
19 1 11.5372 18.3572 49.9805
20 2 14.4216 18.2421 49.9808
21 1 13.7479 19.5222 49.9587
22 2 16.6362 19.4047 49.9634
23 1 15.9623 20.6842 49.9387
24 2 18.8536 20.5654 49.9522
25 1 18.1797 21.8445 49.9264
26 2 21.0729 21.7258 49.9514
27 1 20.3991 23.0045 49.9259
28 2 23.2927 22.8877 49.9612
29 1 22.6194 24.1663 49.9373
30 2 25.5122 24.053 49.9782
31 1 24.8395 25.3316 49.9572
32 2 27.7307 25.2229 49.9969
33 1 27.0587 26.5015 49.9796
34 2 29.9484 26.3974 50.0116
35 1 29.2769 27.6761 49.9988
36 2 32.1655 27.5752 50.0183
37 1 9.24117 14.6799 50.0104
38 2 12.1212 14.5696 50.0197
39 1 11.4464 15.8497 50.0032
40 2 14.3299 15.7379 50.01
41 1 13.6543 17.0173 49.9893
42 2 16.5421 16.9035 49.9964
43 1 15.8657 18.1819 49.9728
44 2 18.7577 18.0665 49.9841
45 1 18.0808 19.3442 49.959
46 2 20.9757 19.2281 49.9783
47 1 20.2986 20.5053 49.953
48 2 23.1947 20.3902 49.9813
49 1 22.5181 21.6672 49.957
50 2 25.4137 21.5547 49.992
51 1 24.7379 22.8317 49.9698
52 2 27.6319 22.7232 50.0057
53 1 26.9573 24.0005 49.9865
54 2 29.849 23.8962 50.0169
55 1 29.1757 25.174 50.0015
56 2 32.0653 25.0729 50.0211
57 1 31.3932 26.3513 50.01
58 2 34.2815 26.2512 50.0159
59 1 33.6103 27.5302 50.0094
60 2 36.4983 27.4284 50.0009
61 1 6.94802 11.0003 49.9993
62 2 9.82723 10.8901 50.0213
63 1 9.15356 12.1706 50.0124
64 2 12.0335 12.0619 50.0305
65 1 11.3585 13.3417 50.017
66 2 14.2414 13.2331 50.0303
67 1 13.5648 14.5118 50.013
68 2 16.4522 14.4019 50.0226
69 1 15.774 15.6795 50.0026
70 2 18.6662 15.5679 50.0117
71 1 17.9868 16.8444 49.9902
72 2 20.8829 16.7315 50.0031
73 1 20.2028 18.0072 49.9812
74 2 23.1011 17.8943 50.0009
75 1 22.4211 19.1696 49.9795
76 2 25.3195 19.0582 50.0061
77 1 24.6402 20.3336 49.986
78 2 27.537 20.2252 50.0157
79 1 26.8591 21.5011 49.9975
80 2 29.7532 21.3963 50.0247
81 1 29.077 22.673 50.009
82 2 31.9681 22.5713 50.0279
83 1 31.2939 23.8489 50.0152
84 2 34.1824 23.7484 50.022
85 1 33.51 25.0271 50.0127
86 2 36.3971 24.9253 50.0061
87 1 35.7261 26.2049 50.0005
88 2 38.6131 26.0994 49.9813
89 1 37.9429 27.3797 49.9795
90 2 40.8306 27.2692 49.9514
91 1 4.64459 7.32647 49.953
92 2 7.52712 7.2114 49.9841
93 1 6.85587 8.49256 49.9812
94 2 9.73673 8.38147 50.0117
95 1 9.06417 9.66206 50.005
96 2 11.9451 9.55418 50.0309
97 1 11.2707 10.8339 50.0206
98 2 14.1538 10.7276 50.0397
99 1 13.4773 12.0061 50.0266
100 2 16.3644 11.8997 50.0387
101 1 15.6857 13.1768 50.0237
102 2 18.5776 13.069 50.0309
103 1 17.897 14.3448 50.0148
104 2 20.7935 14.2352 50.0213
105 1 20.1115 15.51 50.005
106 2 23.011 15.3993 50.0154
107 1 22.3285 16.6735 49.9993
108 2 25.229 16.5631 50.0159
109 1 24.5469 17.8373 50.0005
110 2 27.4461 17.7286 50.022
111 1 26.7652 19.0033 50.0077
112 2 29.6614 18.8975 50.0297
113 1 28.9824 20.1731 50.0167
114 2 31.8748 20.0701 50.0337
115 1 31.1981 21.3469 50.0222
116 2 34.087 21.2454 50.0297
117 1 33.4127 22.5236 50.0199
118 2 36.299 22.4214 50.0157
119 1 35.6268 23.7008 50.0077
120 2 38.5121 23.5954 49.992
121 1 37.8414 24.8759 49.986
122 2 40.727 24.7658 49.9612
123 1 40.0573 26.0469 49.957
124 2 42.9441 25.9317 49.9283
125 1 42.2749 27.2133 49.9259
126 2 45.1631 27.0936 49.9005
127 1 2.32675 3.66083 49.8993
128 2 5.2135 3.54014 49.9291
129 1 4.5443 4.82183 49.9264
130 2 7.42898 4.70501 49.9634
131 1 6.75907 5.98632 49.959
132 2 9.64209 5.87415 49.9964
133 1 8.97094 7.15484 49.9902
134 2 11.8535 7.04706 50.0226
135 1 11.1805 8.32683 50.0148
136 2 14.0643 8.2221 50.0387
137 1 13.3891 9.50065 50.0296
138 2 16.276 9.39695 50.0438
139 1 15.5982 10.6741 50.034
140 2 18.4895 10.5695 50.0397
141 1 17.8093 11.8453 50.0296
142 2 20.7052 11.7385 50.0305
143 1 20.023 13.0132 50.0206
144 2 22.9225 12.9044 50.0219
145 1 22.2393 14.1783 50.0124
146 2 25.1404 14.0685 50.0183
147 1 24.457 15.3422 50.0094
148 2 27.3575 15.2329 50.0211
149 1 26.6749 16.507 50.0127
150 2 29.5727 16.3995 50.0279
151 1 28.8917 17.6744 50.0199
152 2 31.7853 17.5694 50.0337
153 1 31.1065 18.8456 50.026
154 2 33.9958 18.7422 50.0337
155 1 33.3195 20.0199 50.026
156 2 36.2052 19.9166 50.0247
157 1 35.5312 21.1957 50.0167
158 2 38.4149 21.0902 50.0057
159 1 37.7429 22.3705 49.9975
160 2 40.6264 22.261 49.9782
161 1 39.9559 23.5422 49.9698
162 2 42.8405 23.4279 49.946
163 1 42.1709 24.7096 49.9373
164 2 45.0573 24.5907 49.9151
165 1 44.3883 25.8727 49.9063
166 2 47.2763 25.7506 49.8927
167 1 46.6075 27.0326 49.8838
168 2 16.9447 26.9088 49.8845
169 1 -2.4073e-10 4.76481e-10 49.8756
170 2 19.1652 28.0672 49.8927
171 1 2.22055 1.15826 49.8839
172 2 5.10886 1.03664 49.9154
173 1 4.44012 2.31829 49.9067
174 2 7.32694 2.20033 49.9471
175 1 6.6578 3.4816 49.9387
176 2 9.54311 3.36846 49.9808
177 1 8.87312 4.64916 49.9728
178 2 11.7576 4.54107 50.01
179 1 11.0862 5.82096 50.0026
180 2 13.9711 5.71691 50.0303
181 1 13.2977 6.99576 50.0237
182 2 16.1847 6.89374 50.0397
183 1 15.5089 8.17136 50.034
184 2 18.3993 8.06902 50.0387
185 1 17.721 9.34538 50.034
186 2 20.6155 9.24088 50.0303
187 1 19.9349 10.5161 50.0266
188 2 22.8331 10.4088 50.0197
189 1 22.151 11.6833 50.017
190 2 25.0513 11.5737 50.0124
191 1 24.3686 12.8478 50.0104
192 2 27.269 12.7374 50.0116
193 1 26.5865 14.0117 50.01
194 2 29.4848 13.9019 50.0169
195 1 28.8033 15.1769 50.0152
196 2 31.6977 15.0688 50.0247
197 1 31.018 16.3449 50.0222
198 2 33.9076 16.2388 50.0297
199 1 33.23 17.5163 50.026
200 2 36.1152 17.4109 50.0279
201 1 35.4399 18.6899 50.0222
202 2 38.3222 18.5836 50.0169
203 1 37.6488 19.8638 50.009
204 2 40.5303 19.7548 49.9969
205 1 39.8584 21.0358 49.9865
206 2 42.7408 20.9228 49.97
207 1 42.07 22.2043 49.9572
208 2 44.9546 22.0871 49.9407
209 1 44.2844 23.3688 49.9259
210 2 14.6193 23.2481 49.9154
211 1 46.5015 24.5298 49.8992
212 2 16.8384 24.4071 49.9007
213 1 6.55338 0.978225 49.9263
214 2 9.44102 0.864524 49.9708
215 1 8.77135 2.14495 49.9587
216 2 11.6579 2.03647 49.9988
217 1 10.9875 3.31634 49.9893
218 2 13.8738 3.21244 50.0197
219 1 13.202 4.49156 50.013
220 2 16.0893 4.39039 50.0305
221 1 15.4158 5.66863 50.0266
222 2 18.3053 5.56766 50.0309
223 1 17.6297 6.84494 50.0296
224 2 20.5223 6.74188 50.0226
225 1 19.8446 8.01826 50.0237
226 2 22.7405 7.91184 50.01
227 1 22.0612 9.18752 50.013
228 2 24.9594 9.07781 49.9988
229 1 24.279 10.3531 50.0032
230 2 27.178 10.2412 49.9939
231 1 26.4973 11.5165 49.9988
232 2 29.395 11.4041 49.9969
233 1 28.7148 12.6799 50.0015
234 2 31.6092 12.5683 50.0057
235 1 30.9301 13.845 50.009
236 2 33.8199 13.7352 50.0157
237 1 33.1424 15.0129 50.0167
238 2 36.0275 14.9047 50.022
239 1 35.3517 16.1837 50.0199
240 2 38.2331 16.0759 50.0211
241 1 37.5588 17.356 50.0152
242 2 40.4386 17.247 50.0116
243 1 39.7655 18.5278 50.0015
244 2 42.6459 18.4162 49.9939
245 1 41.9736 19.6974 49.9796
246 2 12.3042 19.5824 49.9708
247 1 44.1844 20.8636 49.9528
248 2 14.5181 20.7454 49.9471
249 1 10.8856 0.812888 49.9805
250 2 13.7735 0.708917 50.0124
251 1 13.1025 1.98805 50.0032
252 2 15.9903 1.88718 50.0219
253 1 15.3185 3.16589 50.017
254 2 18.2073 3.0656 50.0213
255 1 17.5342 4.34379 50.0206
256 2 20.4251 4.24152 50.0117
257 1 19.7505 5.51919 50.0148
258 2 22.6438 5.41321 49.9964
259 1 21.9678 6.69043 50.0026
260 2 24.8633 6.58034 49.9808
261 1 24.1862 7.85727 49.9893
262 2 27.0828 7.7439 49.9708
263 1 26.4052 9.02078 49.9805
264 2 29.3012 8.90568 49.97
265 1 28.6237 10.1828 49.9796
266 2 31.5174 10.0677 49.9782
267 1 30.8403 11.3454 49.9865
268 2 33.7302 11.2316 49.992
269 1 33.054 12.5101 49.9975
270 2 35.9394 12.3982 50.0061
271 1 35.2641 13.6777 50.0077
272 2 38.1455 13.5674 50.0159
273 1 37.4711 14.8477 50.0127
274 2 40.3501 14.738 50.0183
275 1 39.6763 16.0187 50.01
276 2 10.0032 15.9082 50.0124
277 1 41.8817 17.1891 49.9988
278 2 12.2107 17.0766 49.9988
279 1 15.2182 0.663142 50.0104
280 2 18.1066 0.563099 50.0154
281 1 17.4352 1.84191 50.0124
282 2 20.3244 1.74001 50.0031
283 1 19.6523 3.01877 50.005
284 2 22.5432 2.91298 49.9841
285 1 21.8703 4.19164 49.9902
286 2 24.7629 4.08118 49.9634
287 1 24.0891 5.35976 49.9728
288 2 26.983 5.24515 49.9471
289 1 26.3087 6.52374 49.9587
290 2 29.2027 6.40639 49.9407
291 1 28.5282 7.68511 49.9528
292 2 31.4209 7.5668 49.946
293 1 30.7465 8.84585 49.9572
294 2 33.6363 8.72826 49.9612
295 1 32.9622 10.0078 49.9698
296 2 35.8482 9.89213 49.9813
297 1 35.1744 11.1722 49.986
298 2 38.0566 11.059 50.0009
299 1 37.383 12.3396 50.0005
300 2 7.71033 12.2285 50.0154
301 1 39.5887 13.5093 50.0094
302 2 9.9152 13.3993 50.0219
303 1 19.5514 0.516999 49.9993
304 2 22.4402 0.411349 49.9783
305 1 21.7693 1.69108 49.9812
306 2 24.6593 1.58043 49.9522
307 1 23.9882 2.86037 49.959
308 2 26.8794 2.74496 49.9291
309 1 26.2079 4.02502 49.9387
310 2 29.0998 3.90608 49.9154
311 1 28.4281 5.18628 49.9263
312 2 31.3195 5.06556 49.9151
313 1 30.6478 6.34592 49.9259
314 2 33.5374 6.22524 49.9283
315 1 32.8657 7.50582 49.9373
316 2 35.7525 7.3868 49.9514
317 1 35.0807 8.66763 49.957
318 2 5.41214 8.5514 49.9783
319 1 37.2921 9.8324 49.9795
320 2 7.62068 9.71938 50.0031
321 1 23.8848 0.359102 49.953
322 2 26.7737 0.243454 49.9221
323 1 26.104 1.52456 49.9264
324 2 28.994 1.40482 49.9007
325 1 28.3242 2.68611 49.9067
326 2 31.2145 2.56392 49.8927
327 1 30.5447 3.84532 49.8992
328 2 33.4342 3.72253 49.9005
329 1 32.7643 5.00399 49.9063
330 2 3.09997 4.88241 49.9221
331 1 34.9819 6.16389 49.9259
332 2 5.31504 6.04505 49.9522
333 1 28.2182 0.184612 49.8993
334 2 31.1074 0.0619369 49.8845
335 1 30.4386 1.34392 49.8839
336 2 0.775939 1.22009 49.8845
337 1 32.6592 2.50208 49.8838
338 2 2.99563 2.37894 49.9007
339 3 14.2687 24.3455 53.4008
340 4 17.1582 24.4683 53.3995
341 3 16.3832 25.6888 53.4162
342 4 19.2716 25.8119 53.3993
343 3 18.4966 27.0326 53.4161
344 4 21.3849 27.1542 53.3846
345 3 12.2522 20.5057 53.3472
346 4 15.1449 20.6241 53.354
347 3 14.3718 21.8449 53.3741
348 4 17.2614 21.9656 53.3717
349 3 16.4883 23.1869 53.3937
350 4 19.376 23.3085 53.3779
351 3 18.6028 24.53 53.4007
352 4 21.4895 24.6507 53.3709
353 3 20.7161 25.8726 53.3933
354 4 23.6029 25.9905 53.3529
355 3 22.8294 27.2126 53.3737
356 4 25.717 27.3263 53.3292
357 3 10.2213 16.6743 53.3012
358 4 13.119 16.7868 53.3031
359 3 12.3477 18.008 53.3204
360 4 15.2414 18.1232 53.3218
361 3 14.4705 19.345 53.3428
362 4 17.3603 19.4626 53.3388
363 3 16.5897 20.685 53.3627
364 4 19.4765 20.8041 53.3486
365 3 18.7059 22.027 53.3741
366 4 21.591 22.1458 53.3478
367 3 20.8203 23.369 53.3736
368 4 23.705 23.4858 53.3366
369 3 22.9338 24.7093 53.3613
370 4 25.8191 24.8224 53.3192
371 3 25.0473 26.0459 53.3413
372 4 27.9339 26.1544 53.3012
373 3 27.1616 27.378 53.3195
374 4 30.0495 27.4819 53.2876
375 3 8.18102 12.8486 53.2906
376 4 11.0815 12.9579 53.2789
377 3 10.3105 14.1792 53.29
378 4 13.2088 14.289 53.2831
379 3 12.4388 15.511 53.2985
380 4 15.3332 15.6225 53.2943
381 3 14.5643 16.8455 53.3135
382 4 17.4542 16.9593 53.308
383 3 16.6862 18.1831 53.3302
384 4 19.5722 18.2987 53.3187
385 3 18.8047 19.5232 53.343
386 4 21.6881 19.6395 53.3217
387 3 20.9206 20.8644 53.347
388 4 23.8031 20.9795 53.3159
389 3 23.0351 22.2045 53.341
390 4 25.9181 22.3167 53.3036
391 3 25.1491 23.5417 53.3272
392 4 28.0336 23.6498 53.29
393 3 27.2635 24.8745 53.3107
394 4 30.1498 24.9784 53.2803
395 3 29.3785 26.2028 53.2968
396 4 32.2663 26.3037 53.2781
397 3 31.4942 27.5277 53.2896
398 4 34.3826 27.6278 53.2846
399 3 6.14507 9.02122 53.3205
400 4 9.04351 9.13265 53.2939
401 3 8.27088 10.3536 53.2995
402 4 11.1701 10.4622 53.278
403 3 10.3989 11.6839 53.2873
404 4 13.2967 11.7913 53.2721
405 3 12.5273 13.014 53.2848
406 4 15.4217 13.122 53.2753
407 3 14.6541 14.3459 53.291
408 4 17.5439 14.4557 53.2843
409 3 16.778 15.6807 53.3025
410 4 19.6634 15.7926 53.2939
411 3 18.8984 17.0186 53.314
412 4 21.7806 17.1318 53.2991
413 3 21.0161 18.3585 53.3205
414 4 23.8967 18.4715 53.2969
415 3 23.1319 19.6983 53.3188
416 4 26.0127 19.8094 53.2883
417 3 25.2469 21.036 53.3098
418 4 28.1295 21.1438 53.2774
419 3 27.3622 22.3699 53.2974
420 4 30.2471 22.4739 53.2697
421 3 29.478 23.6993 53.287
422 4 32.3653 23.8005 53.2695
423 3 31.5945 25.025 53.283
424 4 34.4833 25.1253 53.2787
425 3 33.7112 26.349 53.2876
426 4 36.6004 26.4509 53.2969
427 3 35.8274 27.6739 53.3007
428 4 38.7162 27.7795 53.3217
429 3 4.12312 5.18634 53.3741
430 4 7.01675 5.30315 53.3388
431 3 6.24205 6.5237 53.343
432 4 9.13775 6.63615 53.308
433 3 8.3642 7.85721 53.314
434 4 11.261 7.96565 53.2843
435 3 10.4892 9.18756 53.2923
436 4 13.3854 9.29335 53.2703
437 3 12.6157 10.5164 53.2801
438 4 15.5093 10.6215 53.2663
439 3 14.742 11.8459 53.2778
440 4 17.6316 11.9521 53.2703
441 3 16.8664 13.1779 53.2833
442 4 19.7515 13.2862 53.278
443 3 18.9881 14.5132 53.2923
444 4 21.8695 14.6234 53.2841
445 3 21.107 15.8513 53.2995
446 4 23.9863 15.9624 53.2846
447 3 23.224 17.1905 53.3007
448 4 26.1032 17.3008 53.2787
449 3 25.3402 18.5288 53.295
450 4 28.2211 18.6367 53.2691
451 3 27.4565 19.864 53.2852
452 4 30.3403 19.9688 53.2613
453 3 29.5737 21.1951 53.2763
454 4 32.4607 21.2971 53.2603
455 3 31.6918 22.5222 53.2734
456 4 34.5813 22.6232 53.2691
457 3 33.8102 23.8471 53.2794
458 4 36.7011 23.9493 53.2883
459 3 35.9283 25.1721 53.295
460 4 38.8192 25.2779 53.3159
461 3 38.0453 26.4998 53.3188
462 4 40.9353 26.6104 53.3478
463 3 40.1608 27.8318 53.347
464 4 43.0497 27.9474 53.3779
465 3 -5.53743e-09 -8.4543e-09 53.4244
466 4 2.88918 0.123628 53.4073
467 3 2.11327 1.34386 53.4162
468 4 5.00313 1.46544 53.3849
469 3 4.22743 2.68587 53.3937
470 4 7.11861 2.80381 53.354
471 3 6.34339 4.02456 53.3627
472 4 9.23619 4.13785 53.3218
473 3 8.4619 5.35913 53.3302
474 4 11.3559 5.46766 53.2943
475 3 10.5831 6.68976 53.3025
476 4 13.4772 6.79456 53.2753
477 3 12.7064 8.01778 53.2833
478 4 15.5988 8.12075 53.2663
479 3 14.8305 9.3453 53.274
480 4 17.7198 9.44863 53.2663
481 3 16.954 10.6746 53.274
482 4 19.8392 10.7799 53.2721
483 3 19.0757 12.0072 53.2801
484 4 21.9571 12.115 53.2789
485 3 21.1951 13.3432 53.2873
486 4 24.0741 13.4529 53.2817
487 3 23.3127 14.6816 53.2906
488 4 26.1912 14.7916 53.2781
489 3 25.4296 16.0202 53.2876
490 4 28.3095 16.1289 53.2695
491 3 27.5467 17.357 53.2794
492 4 30.4298 17.4632 53.2603
493 3 29.6651 18.6902 53.2704
494 4 32.552 18.7939 53.2562
495 3 31.7849 20.0195 53.266
496 4 34.6753 20.1218 53.2613
497 3 33.9057 21.3459 53.2704
498 4 36.7983 21.449 53.2774
499 3 36.0265 22.6717 53.2852
500 4 38.9198 22.7776 53.3036
501 3 38.1463 23.9992 53.3098
502 4 41.0389 24.1097 53.3366
503 3 40.2642 25.3305 53.341
504 4 43.1554 25.4459 53.3709
505 3 42.38 26.6663 53.3736
506 4 45.27 26.786 53.3993
507 3 44.4942 28.0062 53.4007
508 4 47.3834 28.1289 53.4155
509 3 4.33379 0.184283 53.4008
510 4 7.22274 0.302624 53.3593
511 3 6.44783 1.52386 53.3741
512 4 9.33793 1.63761 53.33
513 3 8.56349 2.8593 53.3428
514 4 11.4547 2.96799 53.3031
515 3 10.6813 4.19034 53.3135
516 4 13.573 4.29465 53.2831
517 3 12.801 5.51789 53.291
518 4 15.6921 5.61961 53.2721
519 3 14.9221 6.84395 53.2778
520 4 17.811 6.94542 53.2703
521 3 17.0435 8.17096 53.274
522 4 19.9292 8.27428 53.2753
523 3 19.1639 9.50098 53.2778
524 4 22.0462 9.60724 53.2831
525 3 21.2828 10.8349 53.2848
526 4 24.1626 10.9439 53.2884
527 3 23.4003 12.1721 53.29
528 4 26.2792 12.2826 53.2876
529 3 25.5172 13.511 53.2896
530 4 28.3972 13.6213 53.2803
531 3 27.6345 14.8492 53.283
532 4 30.5174 14.9578 53.2697
533 3 29.7533 16.1848 53.2734
534 4 32.6404 16.2911 53.2613
535 3 31.8742 17.5167 53.266
536 4 34.7655 17.6214 53.2603
537 3 33.997 18.8455 53.266
538 4 36.8915 18.95 53.2697
539 3 36.1206 20.1726 53.2763
540 4 39.0165 20.279 53.29
541 3 38.2438 21.5004 53.2974
542 4 41.1393 21.6105 53.3192
543 3 40.3651 22.8311 53.3272
544 4 43.259 22.9457 53.3529
545 3 42.4839 24.1658 53.3613
546 4 45.3758 24.2848 53.3846
547 3 44.6002 25.5048 53.3933
548 4 14.9385 25.6269 53.4073
549 3 46.7146 26.8469 53.4161
550 4 17.0519 26.9708 53.4155
551 3 8.66738 0.357881 53.3472
552 4 11.5562 0.46658 53.3061
553 3 10.7827 1.68938 53.3204
554 4 13.6724 1.79348 53.2884
555 3 12.8997 3.01683 53.2985
556 4 15.7893 3.11793 53.2789
557 3 15.0179 4.34196 53.2848
558 4 17.9064 4.44245 53.278
559 3 17.1367 5.66728 53.2801
560 4 20.023 5.76951 53.2843
561 3 19.2552 6.99517 53.2833
562 4 22.1389 7.10067 53.2943
563 3 21.3728 8.32708 53.291
564 4 24.2543 8.4361 53.3031
565 3 23.4895 9.66304 53.2985
566 4 26.3699 9.77463 53.3061
567 3 25.6057 11.0018 53.3012
568 4 28.4867 11.1143 53.3012
569 3 27.7224 12.3412 53.2968
570 4 30.6059 12.4529 53.29
571 3 29.8408 13.6791 53.287
572 4 32.7282 13.7889 53.2774
573 3 31.9617 15.014 53.2763
574 4 34.8536 15.1218 53.2691
575 3 34.0853 16.3456 53.2704
576 4 36.9812 16.4523 53.2695
577 3 36.2109 17.6747 53.2734
578 4 39.1091 17.782 53.2803
579 3 38.3372 19.0033 53.287
580 4 41.2354 19.1131 53.3012
581 3 40.4622 20.3336 53.3107
582 4 43.3588 20.447 53.3292
583 3 42.5847 21.6671 53.3413
584 4 12.9267 21.7845 53.3593
585 3 44.7041 23.0046 53.3737
586 4 15.0435 23.1253 53.3849
587 3 13.0009 0.514778 53.3012
588 4 15.8895 0.615646 53.2817
589 3 15.1172 1.83953 53.29
590 4 18.0055 1.93962 53.2841
591 3 17.234 3.16378 53.2873
592 4 20.1211 3.26558 53.2939
593 3 19.3508 4.4901 53.2923
594 4 22.2361 4.59545 53.308
595 3 21.4669 5.82035 53.3025
596 4 24.3504 5.92985 53.3218
597 3 23.5824 7.15507 53.3135
598 4 26.4648 7.26808 53.33
599 3 25.6976 8.49344 53.3204
600 4 28.5802 8.60842 53.3292
601 3 27.8132 9.83367 53.3195
602 4 30.6976 9.94881 53.3192
603 3 29.9303 11.1736 53.3107
604 4 32.8181 11.2874 53.3036
605 3 32.05 12.5114 53.2974
606 4 34.9422 12.623 53.2883
607 3 34.173 13.846 53.2852
608 4 37.0695 13.9557 53.2787
609 3 36.299 15.1777 53.2794
610 4 39.1985 15.2864 53.2781
611 3 38.427 16.5076 53.283
612 4 41.3273 16.6172 53.2876
613 3 40.555 17.8378 53.2968
614 4 10.902 17.9496 53.3061
615 3 42.6812 19.1701 53.3195
616 4 13.0252 19.2852 53.33
617 3 17.3343 0.660661 53.2906
618 4 20.2223 0.762411 53.2991
619 3 19.4501 1.986 53.2995
620 4 22.3371 2.09148 53.3187
621 3 21.5654 3.31501 53.314
622 4 24.451 3.42511 53.3388
623 3 23.6799 4.64865 53.3302
624 4 26.5645 4.76299 53.354
625 3 25.794 5.98655 53.3428
626 4 28.6786 6.10376 53.3593
627 3 27.9084 7.32723 53.3472
628 4 30.7941 7.44548 53.3529
629 3 30.0239 8.66869 53.3413
630 4 32.9122 8.78619 53.3366
631 3 32.1417 10.0089 53.3272
632 4 35.0337 10.1244 53.3159
633 3 34.2628 11.3465 53.3098
634 4 37.1589 11.4594 53.2969
635 3 36.3875 12.6808 53.295
636 4 39.287 12.7916 53.2846
637 3 38.5153 14.0125 53.2876
638 4 8.86442 14.1223 53.2817
639 3 40.6446 15.343 53.2896
640 4 10.993 15.4535 53.2884
641 3 21.6669 0.811173 53.3205
642 4 24.5546 0.921699 53.3486
643 3 23.7813 2.14392 53.343
644 4 26.6681 2.2592 53.3717
645 3 25.8949 3.48126 53.3627
646 4 28.7813 3.60012 53.3849
647 3 28.0084 4.82205 53.3741
648 4 30.8953 4.94273 53.3846
649 3 30.1225 6.1645 53.3737
650 4 33.0111 6.28509 53.3709
651 3 32.2383 7.50662 53.3613
652 4 35.1296 7.62549 53.3478
653 3 34.3568 8.84669 53.341
654 4 37.2517 8.96275 53.3217
655 3 36.4788 10.1836 53.3188
656 4 6.82511 10.2966 53.2991
657 3 38.6045 11.5173 53.3007
658 4 8.95299 11.6278 53.2841
659 3 25.9989 0.977558 53.3741
660 4 28.8871 1.09728 53.3995
661 3 28.1123 2.31812 53.3937
662 4 31.0003 2.44029 53.4073
663 3 30.2255 3.66103 53.4008
664 4 33.1144 3.78376 53.3993
665 3 32.3396 5.0044 53.3933
666 4 35.2303 5.12586 53.3779
667 3 34.4557 6.34639 53.3736
668 4 4.79691 6.4651 53.3486
669 3 36.5746 7.68557 53.347
670 4 6.91874 7.80066 53.3187
671 3 30.3315 1.15822 53.4162
672 4 33.2207 1.28203 53.4155
673 3 32.4448 2.50219 53.4161
674 4 2.78272 2.62525 53.3995
675 3 34.559 3.84544 53.4007
676 4 4.89849 3.96604 53.3717
