LAMMPS data file

676 atoms
4 atom types
0.0 32.551999857961654 xlo xhi
0.0 28.190858943808816 ylo yhi
0.0 99.99999999999999 zlo zhi
16.27599993845005 0.0 0.0 xy xz yz

Masses

1 10.81
2 14.007
3 10.81
4 14.007

Atoms

1 1 1 0.42 16.179692245722126 25.68871170027549 49.999999999999986
2 1 2 -0.42 19.068922999419353 25.577505156229662 49.999999999999986
3 1 1 0.42 18.394769159525932 26.856380413924377 49.999999999999986
4 1 2 -0.42 21.283999913223163 26.745173869878546 49.999999999999986
5 1 1 0.42 20.60984607332974 28.024049127573267 49.999999999999986
6 1 2 -0.42 23.499076827026972 27.912842583527432 49.999999999999986
7 1 1 0.42 13.868307639190393 22.018895743093278 49.999999999999986
8 1 2 -0.42 16.757538392887625 21.90768919904745 49.999999999999986
9 1 1 0.42 16.0833845529942 23.18656445674217 49.999999999999986
10 1 2 -0.42 18.97261530669143 23.07535791269634 49.999999999999986
11 1 1 0.42 18.29846146679801 24.354233170391048 49.999999999999986
12 1 2 -0.42 21.18769222049524 24.24302662634522 49.999999999999986
13 1 1 0.42 20.51353838060182 25.521901884039934 49.999999999999986
14 1 2 -0.42 23.40276913429905 25.410695339994106 49.999999999999986
15 1 1 0.42 22.72861529440563 26.689570597688817 49.999999999999986
16 1 2 -0.42 25.617846048102855 26.578364053642986 49.999999999999986
17 1 1 0.42 24.943692208209434 27.857239311337707 49.999999999999986
18 1 2 -0.42 27.832922961906664 27.746032767291876 49.999999999999986
19 1 1 0.42 11.55692303265866 18.349079785911066 49.999999999999986
20 1 2 -0.42 14.446153786355891 18.23787324186524 49.999999999999986
21 1 1 0.42 13.77199994646247 19.51674849955995 49.999999999999986
22 1 2 -0.42 16.6612307001597 19.405541955514128 49.999999999999986
23 1 1 0.42 15.987076860266278 20.684417213208835 49.999999999999986
24 1 2 -0.42 18.876307613963508 20.573210669163007 49.999999999999986
25 1 1 0.42 18.202153774070084 21.852085926857722 49.999999999999986
26 1 2 -0.42 21.091384527767318 21.74087938281189 49.999999999999986
27 1 1 0.42 20.417230687873893 23.019754640506605 49.999999999999986
28 1 2 -0.42 23.306461441571123 22.908548096460773 49.999999999999986
29 1 1 0.42 22.6323076016777 24.1874233541555 49.999999999999986
30 1 2 -0.42 25.52153835537493 24.076216810109663 49.999999999999986
31 1 1 0.42 24.847384515481508 25.355092067804385 49.999999999999986
32 1 2 -0.42 27.736615269178742 25.243885523758554 49.999999999999986
33 1 1 0.42 27.06246142928532 26.52276078145327 49.999999999999986
34 1 2 -0.42 29.951692182982548 26.41155423740744 49.999999999999986
35 1 1 0.42 29.277538343089127 27.690429495102162 49.999999999999986
36 1 2 -0.42 32.16676909678636 27.57922295105633 49.999999999999986
37 1 1 0.42 9.245538426126929 14.679263828728851 49.999999999999986
38 1 2 -0.42 12.13476917982416 14.568057284683022 49.999999999999986
39 1 1 0.42 11.460615339930737 15.846932542377743 49.999999999999986
40 1 2 -0.42 14.349846093627967 15.735725998331908 49.999999999999986
41 1 1 0.42 13.675692253734544 17.014601256026623 49.999999999999986
42 1 2 -0.42 16.564923007431776 16.903394711980795 49.999999999999986
43 1 1 0.42 15.890769167538352 18.18226996967551 49.999999999999986
44 1 2 -0.42 18.779999921235582 18.07106342562968 49.999999999999986
45 1 1 0.42 18.10584608134216 19.349938683324396 49.999999999999986
46 1 2 -0.42 20.99507683503939 19.238732139278564 49.999999999999986
47 1 1 0.42 20.320922995145967 20.517607396973286 49.999999999999986
48 1 2 -0.42 23.210153748843197 20.40640085292745 49.999999999999986
49 1 1 0.42 22.535999908949776 21.685276110622166 49.999999999999986
50 1 2 -0.42 25.425230662647007 21.574069566576338 49.999999999999986
51 1 1 0.42 24.751076822753582 22.85294482427105 49.999999999999986
52 1 2 -0.42 27.640307576450816 22.741738280225228 49.999999999999986
53 1 1 0.42 26.966153736557388 24.02061353791994 49.999999999999986
54 1 2 -0.42 29.85538449025462 23.909406993874107 49.999999999999986
55 1 1 0.42 29.1812306503612 25.188282251568832 49.999999999999986
56 1 2 -0.42 32.070461404058435 25.077075707523004 49.999999999999986
57 1 1 0.42 31.396307564165006 26.35595096521772 49.999999999999986
58 1 2 -0.42 34.28553831786223 26.244744421171884 49.999999999999986
59 1 1 0.42 33.611384477968826 27.5236196788666 49.999999999999986
60 1 2 -0.42 36.50061523166605 27.41241313482077 49.999999999999986
61 1 1 0.42 6.934153819595196 11.009447871546639 49.999999999999986
62 1 2 -0.42 9.823384573292428 10.898241327500807 49.999999999999986
63 1 1 0.42 9.149230733399005 12.177116585195524 49.999999999999986
64 1 2 -0.42 12.038461487096235 12.065910041149696 49.999999999999986
65 1 1 0.42 11.364307647202814 13.344785298844409 49.999999999999986
66 1 2 -0.42 14.253538400900045 13.233578754798582 49.999999999999986
67 1 1 0.42 13.579384561006622 14.5124540124933 49.999999999999986
68 1 2 -0.42 16.468615314703854 14.401247468447467 49.999999999999986
69 1 1 0.42 15.79446147481043 15.680122726142189 49.999999999999986
70 1 2 -0.42 18.68369222850766 15.568916182096354 49.999999999999986
71 1 1 0.42 18.009538388614235 16.847791439791067 49.999999999999986
72 1 2 -0.42 20.898769142311465 16.73658489574524 49.999999999999986
73 1 1 0.42 20.22461530241804 18.015460153439953 49.999999999999986
74 1 2 -0.42 23.11384605611527 17.904253609394125 49.999999999999986
75 1 1 0.42 22.43969221622185 19.183128867088836 49.999999999999986
76 1 2 -0.42 25.32892296991908 19.071922323043008 49.999999999999986
77 1 1 0.42 24.654769130025663 20.35079758073773 49.999999999999986
78 1 2 -0.42 27.54399988372289 20.2395910366919 49.999999999999986
79 1 1 0.42 26.869846043829465 21.51846629438662 49.999999999999986
80 1 2 -0.42 29.7590767975267 21.407259750340785 49.999999999999986
81 1 1 0.42 29.084922957633275 22.686135008035503 49.999999999999986
82 1 2 -0.42 31.97415371133051 22.574928463989668 49.999999999999986
83 1 1 0.42 31.29999987143708 23.853803721684393 49.999999999999986
84 1 2 -0.42 34.189230625134314 23.742597177638558 49.999999999999986
85 1 1 0.42 33.51507678524089 25.021472435333276 49.999999999999986
86 1 2 -0.42 36.40430753893813 24.910265891287445 49.999999999999986
87 1 1 0.42 35.7301536990447 26.18914114898216 49.999999999999986
88 1 2 -0.42 38.619384452741926 26.077934604936335 49.999999999999986
89 1 1 0.42 37.94523061284851 27.356809862631042 49.999999999999986
90 1 2 -0.42 40.83446136654574 27.24560331858522 49.999999999999986
91 1 1 0.42 4.6227692130634646 7.339631914364426 49.999999999999986
92 1 2 -0.42 7.511999966760694 7.228425370318596 49.999999999999986
93 1 1 0.42 6.837846126867272 8.507300628013311 49.999999999999986
94 1 2 -0.42 9.727076880564503 8.396094083967482 49.999999999999986
95 1 1 0.42 9.05292304067108 9.674969341662198 49.999999999999986
96 1 2 -0.42 11.942153794368313 9.56376279761637 49.999999999999986
97 1 1 0.42 11.267999954474888 10.842638055311083 49.999999999999986
98 1 2 -0.42 14.157230708172118 10.731431511265253 49.999999999999986
99 1 1 0.42 13.483076868278694 12.01030676895997 49.999999999999986
100 1 2 -0.42 16.372307621975928 11.89910022491414 49.999999999999986
101 1 1 0.42 15.698153782082503 13.17797548260886 49.999999999999986
102 1 2 -0.42 18.587384535779734 13.06676893856303 49.999999999999986
103 1 1 0.42 17.913230695886313 14.34564419625774 49.999999999999986
104 1 2 -0.42 20.802461449583543 14.234437652211913 49.999999999999986
105 1 1 0.42 20.12830760969012 15.513312909906626 49.999999999999986
106 1 2 -0.42 23.01753836338735 15.402106365860801 49.999999999999986
107 1 1 0.42 22.343384523493928 16.68098162355552 49.999999999999986
108 1 2 -0.42 25.232615277191158 16.569775079509686 49.999999999999986
109 1 1 0.42 24.558461437297737 17.848650337204408 49.999999999999986
110 1 2 -0.42 27.44769219099497 17.737443793158572 49.999999999999986
111 1 1 0.42 26.773538351101546 19.016319050853294 49.999999999999986
112 1 2 -0.42 29.662769104798777 18.90511250680746 49.999999999999986
113 1 1 0.42 28.988615264905356 20.18398776450218 49.999999999999986
114 1 2 -0.42 31.87784601860259 20.07278122045635 49.999999999999986
115 1 1 0.42 31.20369217870916 21.35165647815106 49.999999999999986
116 1 2 -0.42 34.09292293240639 21.240449934105232 49.999999999999986
117 1 1 0.42 33.418769092512974 22.519325191799947 49.999999999999986
118 1 2 -0.42 36.3079998462102 22.408118647754122 49.999999999999986
119 1 1 0.42 35.63384600631677 23.68699390544883 49.999999999999986
120 1 2 -0.42 38.52307676001401 23.57578736140301 49.999999999999986
121 1 1 0.42 37.848922920120586 24.854662619097716 49.999999999999986
122 1 2 -0.42 40.73815367381782 24.743456075051892 49.999999999999986
123 1 1 0.42 40.06399983392439 26.022331332746603 49.999999999999986
124 1 2 -0.42 42.95323058762162 25.911124788700775 49.999999999999986
125 1 1 0.42 42.2790767477282 27.19000004639549 49.999999999999986
126 1 2 -0.42 45.16830750142543 27.078793502349658 49.999999999999986
127 1 1 0.42 2.3113846065317323 3.669815957182213 49.999999999999986
128 1 2 -0.42 5.200615360228962 3.558609413136383 49.999999999999986
129 1 1 0.42 4.52646152033554 4.837484670831099 49.999999999999986
130 1 2 -0.42 7.41569227403277 4.72627812678527 49.999999999999986
131 1 1 0.42 6.741538434139347 6.005153384479985 49.999999999999986
132 1 2 -0.42 9.630769187836577 5.893946840434155 49.999999999999986
133 1 1 0.42 8.956615347943156 7.17282209812887 49.999999999999986
134 1 2 -0.42 11.845846101640385 7.06161555408304 49.999999999999986
135 1 1 0.42 11.171692261746964 8.34049081177776 49.999999999999986
136 1 2 -0.42 14.060923015444196 8.229284267731929 49.999999999999986
137 1 1 0.42 13.386769175550773 9.508159525426647 49.999999999999986
138 1 2 -0.42 16.275999929248 9.396952981380814 49.999999999999986
139 1 1 0.42 15.60184608935458 10.67582823907553 49.999999999999986
140 1 2 -0.42 18.49107684305181 10.564621695029699 49.999999999999986
141 1 1 0.42 17.816923003158387 11.843496952724415 49.999999999999986
142 1 2 -0.42 20.70615375685562 11.732290408678589 49.999999999999986
143 1 1 0.42 20.031999916962196 13.011165666373302 49.999999999999986
144 1 2 -0.42 22.921230670659423 12.899959122327473 49.999999999999986
145 1 1 0.42 22.247076830766005 14.178834380022188 49.999999999999986
146 1 2 -0.42 25.13630758446324 14.067627835976358 49.999999999999986
147 1 1 0.42 24.46215374456981 15.346503093671073 49.999999999999986
148 1 2 -0.42 27.35138449826704 15.235296549625247 49.999999999999986
149 1 1 0.42 26.677230658373624 16.51417180731996 49.999999999999986
150 1 2 -0.42 29.56646141207085 16.40296526327413 49.999999999999986
151 1 1 0.42 28.892307572177433 17.68184052096885 49.999999999999986
152 1 2 -0.42 31.781538325874664 17.570633976923016 49.999999999999986
153 1 1 0.42 31.107384485981235 18.849509234617738 49.999999999999986
154 1 2 -0.42 33.99661523967846 18.738302690571903 49.999999999999986
155 1 1 0.42 33.32246139978505 20.017177948266617 49.999999999999986
156 1 2 -0.42 36.21169215348228 19.90597140422079 49.999999999999986
157 1 1 0.42 35.537538313588854 21.184846661915504 49.999999999999986
158 1 2 -0.42 38.42676906728608 21.073640117869676 49.999999999999986
159 1 1 0.42 37.75261522739267 22.35251537556439 49.999999999999986
160 1 2 -0.42 40.6418459810899 22.241308831518563 49.999999999999986
161 1 1 0.42 39.967692141196466 23.52018408921328 49.999999999999986
162 1 2 -0.42 42.85692289489371 23.408977545167446 49.999999999999986
163 1 1 0.42 42.18276905500028 24.68785280286216 49.999999999999986
164 1 2 -0.42 45.07199980869751 24.576646258816332 49.999999999999986
165 1 1 0.42 44.397845968804084 25.855521516511047 49.999999999999986
166 1 2 -0.42 47.28707672250132 25.74431497246522 49.999999999999986
167 1 1 0.42 46.61292288260789 27.02319023015993 49.999999999999986
168 1 2 -0.42 16.95015377834347 26.911983686114095 49.999999999999986
169 1 1 0.42 0.0 0.0 49.999999999999986
170 1 2 -0.42 19.165230692147283 28.079652399762992 49.999999999999986
171 1 1 0.42 2.215076913803808 1.167668713648886 49.999999999999986
172 1 2 -0.42 5.104307667501038 1.0564621696030563 49.999999999999986
173 1 1 0.42 4.430153827607616 2.335337427297772 49.999999999999986
174 1 2 -0.42 7.319384581304846 2.2241308832519424 49.999999999999986
175 1 1 0.42 6.6452307414114244 3.5030061409466593 49.999999999999986
176 1 2 -0.42 9.534461495108657 3.391799596900828 49.999999999999986
177 1 1 0.42 8.860307655215232 4.670674854595544 49.999999999999986
178 1 2 -0.42 11.749538408912464 4.559468310549715 49.999999999999986
179 1 1 0.42 11.07538456901904 5.838343568244429 49.999999999999986
180 1 2 -0.42 13.96461532271627 5.7271370241986 49.999999999999986
181 1 1 0.42 13.290461482822849 7.006012281893319 49.999999999999986
182 1 2 -0.42 16.179692236520083 6.894805737847488 49.999999999999986
183 1 1 0.42 15.505538396626655 8.173680995542206 49.999999999999986
184 1 2 -0.42 18.394769150323885 8.062474451496373 49.999999999999986
185 1 1 0.42 17.720615310430464 9.341349709191087 49.999999999999986
186 1 2 -0.42 20.609846064127694 9.23014316514526 49.999999999999986
187 1 1 0.42 19.935692224234273 10.509018422839974 49.999999999999986
188 1 2 -0.42 22.824922977931504 10.397811878794146 49.999999999999986
189 1 1 0.42 22.15076913803808 11.676687136488859 49.999999999999986
190 1 2 -0.42 25.03999989173531 11.565480592443032 49.999999999999986
191 1 1 0.42 24.365846051841892 12.844355850137749 49.999999999999986
192 1 2 -0.42 27.25507680553912 12.733149306091915 49.999999999999986
193 1 1 0.42 26.580922965645698 14.012024563786637 49.999999999999986
194 1 2 -0.42 29.47015371934293 13.900818019740804 49.999999999999986
195 1 1 0.42 28.795999879449507 15.17969327743552 49.999999999999986
196 1 2 -0.42 31.685230633146737 15.06848673338969 49.999999999999986
197 1 1 0.42 31.01107679325331 16.347361991084412 49.999999999999986
198 1 2 -0.42 33.900307546950536 16.236155447038577 49.999999999999986
199 1 1 0.42 33.226153707057115 17.515030704733295 49.999999999999986
200 1 2 -0.42 36.11538446075435 17.403824160687464 49.999999999999986
201 1 1 0.42 35.44123062086093 18.682699418382175 49.999999999999986
202 1 2 -0.42 38.330461374558155 18.571492874336354 49.999999999999986
203 1 1 0.42 37.656307534664734 19.85036813203106 49.999999999999986
204 1 2 -0.42 40.54553828836197 19.73916158798524 49.999999999999986
205 1 1 0.42 39.87138444846855 21.018036845679948 49.999999999999986
206 1 2 -0.42 42.76061520216577 20.906830301634116 49.999999999999986
207 1 1 0.42 42.08646136227235 22.185705559328834 49.999999999999986
208 1 2 -0.42 44.97569211596958 22.074499015283003 49.999999999999986
209 1 1 0.42 44.30153827607616 23.353374272977717 49.999999999999986
210 1 2 -0.42 14.638769171811735 23.242167728931882 49.999999999999986
211 1 1 0.42 46.516615189879964 24.52104298662661 49.999999999999986
212 1 2 -0.42 16.853846085615537 24.409836442580776 49.999999999999986
213 1 1 0.42 6.548923048683499 1.0008588974133312 49.999999999999986
214 1 2 -0.42 9.43815380238073 0.8896523533675016 49.999999999999986
215 1 1 0.42 8.763999962487308 2.168527611062218 49.999999999999986
216 1 2 -0.42 11.65323071618454 2.0573210670163875 49.999999999999986
217 1 1 0.42 10.979076876291115 3.3361963247111035 49.999999999999986
218 1 2 -0.42 13.868307629988347 3.224989780665273 49.999999999999986
219 1 1 0.42 13.194153790094923 4.50386503835999 49.999999999999986
220 1 2 -0.42 16.083384543792153 4.39265849431416 49.999999999999986
221 1 1 0.42 15.409230703898732 5.671533752008876 49.999999999999986
222 1 2 -0.42 18.298461457595963 5.560327207963046 49.999999999999986
223 1 1 0.42 17.62430761770254 6.839202465657761 49.999999999999986
224 1 2 -0.42 20.513538371399775 6.727995921611932 49.999999999999986
225 1 1 0.42 19.83938453150635 8.006871179306646 49.999999999999986
226 1 2 -0.42 22.72861528520358 7.89566463526082 49.999999999999986
227 1 1 0.42 22.05446144531016 9.174539892955533 49.999999999999986
228 1 2 -0.42 24.943692199007387 9.063333348909707 49.999999999999986
229 1 1 0.42 24.269538359113962 10.34220860660442 49.999999999999986
230 1 2 -0.42 27.1587691128112 10.231002062558591 49.999999999999986
231 1 1 0.42 26.48461527291777 11.50987732025331 49.999999999999986
232 1 2 -0.42 29.373846026615 11.398670776207476 49.999999999999986
233 1 1 0.42 28.69969218672158 12.677546033902194 49.999999999999986
234 1 2 -0.42 31.588922940418808 12.566339489856363 49.999999999999986
235 1 1 0.42 30.914769100525387 13.845214747551077 49.999999999999986
236 1 2 -0.42 33.80399985422262 13.734008203505251 49.999999999999986
237 1 1 0.42 33.1298460143292 15.01288346119997 49.999999999999986
238 1 2 -0.42 36.01907676802643 14.901676917154141 49.999999999999986
239 1 1 0.42 35.344922928133 16.18055217484885 49.999999999999986
240 1 2 -0.42 38.234153681830236 16.06934563080302 49.999999999999986
241 1 1 0.42 37.559999841936815 17.348220888497735 49.999999999999986
242 1 2 -0.42 40.44923059563405 17.237014344451907 49.999999999999986
243 1 1 0.42 39.77507675574062 18.51588960214662 49.999999999999986
244 1 2 -0.42 42.664307509437855 18.404683058100787 49.999999999999986
245 1 1 0.42 41.990153669544426 19.68355831579551 49.999999999999986
246 1 2 -0.42 12.327384565280004 19.572351771749673 49.999999999999986
247 1 1 0.42 44.20523058334824 20.8512270294444 49.999999999999986
248 1 2 -0.42 14.542461479083814 20.740020485398563 49.999999999999986
249 1 1 0.42 10.882769183563193 0.8340490811777765 49.999999999999986
250 1 2 -0.42 13.771999937260421 0.7228425371319467 49.999999999999986
251 1 1 0.42 13.097846097366999 2.0017177948266625 49.999999999999986
252 1 2 -0.42 15.987076851064229 1.8905112507808335 49.999999999999986
253 1 1 0.42 15.312923011170808 3.169386508475548 49.999999999999986
254 1 2 -0.42 18.202153764868036 3.0581799644297187 49.999999999999986
255 1 1 0.42 17.527999924974615 4.337055222124436 49.999999999999986
256 1 2 -0.42 20.417230678671846 4.225848678078605 49.999999999999986
257 1 1 0.42 19.74307683877842 5.504723935773322 49.999999999999986
258 1 2 -0.42 22.632307592475655 5.3935173917274915 49.999999999999986
259 1 1 0.42 21.95815375258223 6.672392649422207 49.999999999999986
260 1 2 -0.42 24.84738450627946 6.561186105376376 49.999999999999986
261 1 1 0.42 24.17323066638604 7.840061363071093 49.999999999999986
262 1 2 -0.42 27.062461420083267 7.728854819025264 49.999999999999986
263 1 1 0.42 26.388307580189846 9.00773007671998 49.999999999999986
264 1 2 -0.42 29.27753833388708 8.89652353267415 49.999999999999986
265 1 1 0.42 28.60338449399366 10.175398790368865 49.999999999999986
266 1 2 -0.42 31.492615247690892 10.064192246323039 49.999999999999986
267 1 1 0.42 30.818461407797464 11.343067504017752 49.999999999999986
268 1 2 -0.42 33.70769216149469 11.231860959971922 49.999999999999986
269 1 1 0.42 33.03353832160127 12.51073621766664 49.999999999999986
270 1 2 -0.42 35.9227690752985 12.399529673620808 49.999999999999986
271 1 1 0.42 35.24861523540508 13.678404931315521 49.999999999999986
272 1 2 -0.42 38.13784598910231 13.567198387269691 49.999999999999986
273 1 1 0.42 37.46369214920888 14.846073644964408 49.999999999999986
274 1 2 -0.42 40.352922902906116 14.734867100918578 49.999999999999986
275 1 1 0.42 39.6787690630127 16.013742358613293 49.999999999999986
276 1 2 -0.42 10.01599995874828 15.902535814567464 49.999999999999986
277 1 1 0.42 41.89384597681651 17.18141107226218 49.999999999999986
278 1 2 -0.42 12.231076872552087 17.07020452821635 49.999999999999986
279 1 1 0.42 15.216615318442884 0.6672392649422222 49.999999999999986
280 1 2 -0.42 18.10584607214011 0.5560327208963924 49.999999999999986
281 1 1 0.42 17.43169223224669 1.8349079785911084 49.999999999999986
282 1 2 -0.42 20.320922985943923 1.723701434545279 49.999999999999986
283 1 1 0.42 19.6467691460505 3.002576692239994 49.999999999999986
284 1 2 -0.42 22.535999899747726 2.8913701481941643 49.999999999999986
285 1 1 0.42 21.861846059854305 4.170245405888881 49.999999999999986
286 1 2 -0.42 24.751076813551535 4.059038861843051 49.999999999999986
287 1 1 0.42 24.076922973658117 5.337914119537767 49.999999999999986
288 1 2 -0.42 26.966153727355348 5.226707575491939 49.999999999999986
289 1 1 0.42 26.29199988746193 6.505582833186653 49.999999999999986
290 1 2 -0.42 29.181230641159157 6.394376289140822 49.999999999999986
291 1 1 0.42 28.507076801265733 7.673251546835541 49.999999999999986
292 1 2 -0.42 31.396307554962963 7.562045002789711 49.999999999999986
293 1 1 0.42 30.72215371506954 8.840920260484424 49.999999999999986
294 1 2 -0.42 33.61138446876677 8.729713716438596 49.999999999999986
295 1 1 0.42 32.93723062887335 10.00858897413331 49.999999999999986
296 1 2 -0.42 35.826461382570585 9.897382430087479 49.999999999999986
297 1 1 0.42 35.15230754267716 11.176257687782199 49.999999999999986
298 1 2 -0.42 38.041538296374384 11.065051143736367 49.999999999999986
299 1 1 0.42 37.36738445648096 12.343926401431085 49.999999999999986
300 1 2 -0.42 7.704615352216553 12.23271985738525 49.999999999999986
301 1 1 0.42 39.582461370284776 13.51159511507997 49.999999999999986
302 1 2 -0.42 9.919692266020355 13.400388571034137 49.999999999999986
303 1 1 0.42 19.55046145332258 0.500429448706667 49.999999999999986
304 1 2 -0.42 22.43969220701981 0.38922290466083737 49.999999999999986
305 1 1 0.42 21.765538367126386 1.668098162355553 49.999999999999986
306 1 2 -0.42 24.654769120823616 1.5568916183097232 49.999999999999986
307 1 1 0.42 23.980615280930188 2.83576687600444 49.999999999999986
308 1 2 -0.42 26.86984603462742 2.72456033195861 49.999999999999986
309 1 1 0.42 26.195692194733997 4.003435589653325 49.999999999999986
310 1 2 -0.42 29.084922948431235 3.892229045607495 49.999999999999986
311 1 1 0.42 28.41076910853781 5.171104303302212 49.999999999999986
312 1 2 -0.42 31.29999986223504 5.0598977592563825 49.999999999999986
313 1 1 0.42 30.625846022341616 6.338773016951096 49.999999999999986
314 1 2 -0.42 33.51507677603884 6.227566472905268 49.999999999999986
315 1 1 0.42 32.84092293614542 7.506441730599983 49.999999999999986
316 1 2 -0.42 35.73015368984265 7.395235186554152 49.999999999999986
317 1 1 0.42 35.05599984994923 8.674110444248871 49.999999999999986
318 1 2 -0.42 5.393230745684811 8.562903900203034 49.999999999999986
319 1 1 0.42 37.27107676375304 9.84177915789776 49.999999999999986
320 1 2 -0.42 7.60830765948862 9.73057261385192 49.999999999999986
321 1 1 0.42 23.884307588202265 0.33361963247111204 49.999999999999986
322 1 2 -0.42 26.7735383418995 0.2224130884252822 49.999999999999986
323 1 1 0.42 26.099384502006075 1.5012883461199982 49.999999999999986
324 1 2 -0.42 28.988615255703305 1.3900818020741683 49.999999999999986
325 1 1 0.42 28.314461415809884 2.6689570597688848 49.999999999999986
326 1 2 -0.42 31.20369216950711 2.5577505157230545 49.999999999999986
327 1 1 0.42 30.529538329613693 3.8366257734177696 49.999999999999986
328 1 2 -0.42 33.41876908331092 3.7254192293719415 49.999999999999986
329 1 1 0.42 32.744615243417506 5.004294487066657 49.999999999999986
330 1 2 -0.42 3.0818461391530856 4.893087943020823 49.999999999999986
331 1 1 0.42 34.95969215722131 6.171963200715543 49.999999999999986
332 1 2 -0.42 5.2969230529568865 6.060756656669708 49.999999999999986
333 1 1 0.42 28.21815372308196 0.16680981623555835 49.999999999999986
334 1 2 -0.42 31.107384476779192 0.055603272189728783 49.999999999999986
335 1 1 0.42 30.433230636885767 1.3344785298844444 49.999999999999986
336 1 2 -0.42 0.7704615326213456 1.22327198583861 49.999999999999986
337 1 1 0.42 32.648307550689566 2.502147243533331 49.999999999999986
338 1 2 -0.42 2.9855384464251546 2.3909406994874964 49.999999999999986
339 2 3 0.42 14.253538399344146 24.35423316560333 53.3
340 2 4 -0.42 17.14276915307873 24.46543970867868 53.3
341 2 3 0.42 16.37230762086828 25.688711694776085 53.3
342 2 4 -0.42 19.261538374602864 25.799918237851433 53.3
343 2 3 0.42 18.491076842392413 27.023190223948838 53.3
344 2 4 -0.42 21.380307596126997 27.13439676702419 53.3
345 2 3 0.42 12.231076869707477 20.517607392864903 53.3
346 2 4 -0.42 15.120307623442063 20.628813935940247 53.3
347 2 3 0.42 14.34984609123161 21.85208592203766 53.3
348 2 4 -0.42 17.239076844966192 21.963292465113003 53.3
349 2 3 0.42 16.468615312755738 23.186564451210412 53.3
350 2 4 -0.42 19.357846066490325 23.29777099428576 53.3
351 2 3 0.42 18.58738453427987 24.521042980383164 53.3
352 2 4 -0.42 21.476615288014457 24.632249523458512 53.3
353 2 3 0.42 20.706153755804003 25.85552150955592 53.3
354 2 4 -0.42 23.595384509538583 25.966728052631264 53.3
355 2 3 0.42 22.82492297732813 27.190000038728673 53.3
356 2 4 -0.42 25.714153731062716 27.301206581804017 53.3
357 2 3 0.42 10.208615340070809 16.680981620126474 53.3
358 2 4 -0.42 13.097846093805394 16.792188163201818 53.3
359 2 3 0.42 12.327384561594938 18.015460149299226 53.3
360 2 4 -0.42 15.216615315329523 18.12666669237457 53.3
361 2 3 0.42 14.44615378311907 19.34993867847198 53.3
362 2 4 -0.42 17.335384536853656 19.46114522154733 53.3
363 2 3 0.42 16.5649230046432 20.68441720764473 53.3
364 2 4 -0.42 19.454153758377785 20.79562375072008 53.3
365 2 3 0.42 18.68369222616733 22.01889573681749 53.3
366 2 4 -0.42 21.572922979901918 22.13010227989283 53.3
367 2 3 0.42 20.802461447691464 23.353374265990244 53.3
368 2 4 -0.42 23.69169220142605 23.46458080906559 53.3
369 2 3 0.42 22.921230669215593 24.687852795162993 53.3
370 2 4 -0.42 25.810461422950176 24.79905933823834 53.3
371 2 3 0.42 25.039999890739722 26.022331324335752 53.3
372 2 4 -0.42 27.92923064447431 26.133537867411093 53.3
373 2 3 0.42 27.158769112263855 27.356809853508505 53.3
374 2 4 -0.42 30.04799986599844 27.468016396583852 53.3
375 2 3 0.42 8.18615381043414 12.844355847388043 53.3
376 2 4 -0.42 11.075384564168726 12.95556239046339 53.3
377 2 3 0.42 10.304923031958271 14.178834376560797 53.3
378 2 4 -0.42 13.194153785692855 14.290040919636144 53.3
379 2 3 0.42 12.4236922534824 15.513312905733553 53.3
380 2 4 -0.42 15.312923007216988 15.6245194488089 53.3
381 2 3 0.42 14.54246147500653 16.847791434906302 53.3
382 2 4 -0.42 17.431692228741113 16.958997977981653 53.3
383 2 3 0.42 16.661230696530662 18.182269964079055 53.3
384 2 4 -0.42 19.550461450265246 18.29347650715441 53.3
385 2 3 0.42 18.779999918054795 19.51674849325181 53.3
386 2 4 -0.42 21.66923067178938 19.627955036327155 53.3
387 2 3 0.42 20.898769139578924 20.851227022424563 53.3
388 2 4 -0.42 23.78799989331351 20.96243356549991 53.3
389 2 3 0.42 23.017538361103057 22.185705551597316 53.3
390 2 4 -0.42 25.906769114837644 22.29691209467267 53.3
391 2 3 0.42 25.136307582627186 23.520184080770065 53.3
392 2 4 -0.42 28.02553833636177 23.631390623845416 53.3
393 2 3 0.42 27.255076804151315 24.854662609942825 53.3
394 2 4 -0.42 30.144307557885902 24.965869153018172 53.3
395 2 3 0.42 29.37384602567544 26.18914113911558 53.3
396 2 4 -0.42 32.26307677941003 26.300347682190928 53.3
397 2 3 0.42 31.49261524719958 27.523619668288333 53.3
398 2 4 -0.42 34.38184600093416 27.634826211363684 53.3
399 2 3 0.42 6.163692280797469 9.007730074649613 53.3
400 2 4 -0.42 9.052923034532053 9.11893661772496 53.3
401 2 3 0.42 8.2824615023216 10.342208603822366 53.3
402 2 4 -0.42 11.171692256056186 10.453415146897717 53.3
403 2 3 0.42 10.401230723845732 11.676687132995122 53.3
404 2 4 -0.42 13.290461477580317 11.787893676070471 53.3
405 2 3 0.42 12.519999945369861 13.011165662167876 53.3
406 2 4 -0.42 15.409230699104446 13.122372205243224 53.3
407 2 3 0.42 14.638769166893994 14.345644191340627 53.3
408 2 4 -0.42 17.527999920628577 14.456850734415976 53.3
409 2 3 0.42 16.757538388418123 15.680122720513383 53.3
410 2 4 -0.42 19.64676914215271 15.791329263588732 53.3
411 2 3 0.42 18.876307609942256 17.014601249686134 53.3
412 2 4 -0.42 21.76553836367684 17.125807792761485 53.3
413 2 3 0.42 20.995076831466392 18.34907977885889 53.3
414 2 4 -0.42 23.884307585200972 18.460286321934237 53.3
415 2 3 0.42 23.113846052990517 19.683558308031646 53.3
416 2 4 -0.42 26.003076806725105 19.79476485110699 53.3
417 2 3 0.42 25.23261527451465 21.018036837204402 53.3
418 2 4 -0.42 28.121846028249234 21.129243380279743 53.3
419 2 3 0.42 27.35138449603878 22.352515366377155 53.3
420 2 4 -0.42 30.240615249773363 22.463721909452495 53.3
421 2 3 0.42 29.47015371756291 23.686993895549904 53.3
422 2 4 -0.42 32.359384471297496 23.798200438625255 53.3
423 2 3 0.42 31.588922939087034 25.021472424722663 53.3
424 2 4 -0.42 34.47815369282162 25.132678967798007 53.3
425 2 3 0.42 33.70769216061117 26.355950953895412 53.3
426 2 4 -0.42 36.596922914345754 26.467157496970763 53.3
427 2 3 0.42 35.8264613821353 27.690429483068165 53.3
428 2 4 -0.42 38.71569213586989 27.801636026143512 53.3
429 2 3 0.42 4.1412307511608 5.171104301911183 53.3
430 2 4 -0.42 7.030461504895385 5.282310844986531 53.3
431 2 3 0.42 6.2599999726849305 6.505582831083938 53.3
432 2 4 -0.42 9.149230726419516 6.616789374159286 53.3
433 2 3 0.42 8.378769194209061 7.8400613602566915 53.3
434 2 4 -0.42 11.267999947943647 7.951267903332039 53.3
435 2 3 0.42 10.497538415733196 9.174539889429445 53.3
436 2 4 -0.42 13.38676916946778 9.285746432504794 53.3
437 2 3 0.42 12.616307637257325 10.509018418602201 53.3
438 2 4 -0.42 15.505538390991912 10.620224961677547 53.3
439 2 3 0.42 14.735076858781454 11.843496947774952 53.3
440 2 4 -0.42 17.62430761251604 11.954703490850303 53.3
441 2 3 0.42 16.853846080305583 13.177975476947706 53.3
442 2 4 -0.42 19.743076834040167 13.289182020023052 53.3
443 2 3 0.42 18.972615301829713 14.512454006120457 53.3
444 2 4 -0.42 21.8618460555643 14.623660549195808 53.3
445 2 3 0.42 21.091384523353845 15.84693253529321 53.3
446 2 4 -0.42 23.98061527708843 15.958139078368559 53.3
447 2 3 0.42 23.210153744877978 17.181411064465973 53.3
448 2 4 -0.42 26.099384498612572 17.292617607541313 53.3
449 2 3 0.42 25.328922966402107 18.515889593638725 53.3
450 2 4 -0.42 28.218153720136698 18.627096136714073 53.3
451 2 3 0.42 27.447692187926236 19.850368122811474 53.3
452 2 4 -0.42 30.336922941660827 19.961574665886822 53.3
453 2 3 0.42 29.56646140945037 21.18484665198423 53.3