ITEM: TIMESTEP
1413
ITEM: NUMBER OF ATOMS
115296
ITEM: BOX BOUNDS xy xz yz pp pp pp
0.0000000000000000e+00 3.1488000000000000e+02 0.0000000000000000e+00
0.0000000000000000e+00 5.4538815829708801e+02 0.0000000000000000e+00
0.0000000000000000e+00 1.0000000000000000e+02 0.0000000000000000e+00
ITEM: ATOMS id type x y z
1 1 314.88 545.388 51.0412
2 4 1.64246 2.84483 51.0109
3 7 3.28492 -7.86859e-06 51.0109
4 10 4.92631 2.84421 50.9506
5 2 1.65828 0.957408 52.7007
6 5 314.88 3.82844 52.6704
7 11 3.31558 3.82786 52.6398
8 8 4.97281 0.957445 52.6398
9 3 314.88 545.388 54.3782
10 6 1.6742 2.8993 54.3474
11 9 3.34797 0.000252399 54.3474
12 12 5.01964 2.89809 54.2861
13 1 314.88 5.68848 50.9516
14 4 1.6415 8.52964 50.8367
15 7 3.28388 5.68787 50.9217
16 10 4.92377 8.52817 50.7795
17 2 1.6573 6.69548 52.5811
18 5 314.88 9.55731 52.4677
19 11 3.31169 9.55549 52.4391
20 8 4.96997 6.6931 52.5218
21 3 314.88 5.79474 54.2871
22 6 1.67147 8.6813 54.1705
23 9 3.34582 5.79318 54.2567
24 12 5.01149 8.67606 54.1125
25 1 314.88 11.369 50.7017
26 4 1.64036 14.2064 50.5276
27 7 3.28165 11.3682 50.6747
28 10 4.92082 14.2052 50.4793
29 2 1.65439 12.4111 52.3081
30 5 314.88 15.2587 52.1395
31 11 3.30448 15.2561 52.1162
32 8 4.96165 12.4066 52.2558
33 3 314.88 11.5576 54.0338
34 6 1.66517 14.4185 53.8581
35 9 3.3368 11.5539 54.0065
36 12 4.99333 14.4095 53.8096
37 1 314.88 17.0438 50.3504
38 4 1.63993 19.8813 50.1586
39 7 3.28003 17.0433 50.3295
40 10 4.91974 19.8809 50.1252
41 2 1.65024 18.0985 51.9482
42 5 314.88 20.9345 51.7663
43 11 3.29604 20.9318 51.751
44 8 4.94988 18.0932 51.9094
45 3 314.88 17.2679 53.6801
46 6 1.65666 20.1028 53.4882
47 9 3.3217 17.2628 53.6592
48 12 4.96901 20.0923 53.4551
49 1 314.88 22.7198 49.9807
50 4 1.6403 25.559 49.8095
51 7 3.28007 22.7198 49.9682
52 10 4.92076 25.5593 49.7932
53 2 1.64603 23.7654 51.5853
54 5 -1.14744e-13 26.5952 51.4249
55 11 3.28823 26.5929 51.4183
56 8 4.93784 23.7605 51.5635
57 3 314.88 22.931 53.3108
58 6 1.64804 25.7498 53.1408
59 9 3.30443 22.9257 53.2986
60 12 4.94428 25.7401 53.125
61 1 314.88 28.3989 49.6607
62 4 1.64095 31.2394 49.5313
63 7 3.28119 28.3991 49.6568
64 10 4.92256 31.2398 49.531
65 2 1.64236 29.4223 51.2808
66 5 314.88 32.2499 51.1602
67 11 3.28156 32.248 51.1614
68 8 4.9272 29.4182 51.2757
69 3 314.88 28.5669 52.9931
70 6 1.64052 31.3793 52.8649
71 9 3.28837 28.5624 52.9894
72 12 4.92236 31.3711 52.865
73 1 314.88 34.0802 49.4253
74 4 1.64143 36.9216 49.3451
75 7 3.28237 34.0804 49.4288
76 10 4.92393 36.9218 49.358
77 2 1.63928 35.0764 51.0637
78 5 -9.38283e-14 37.9041 50.9891
79 11 3.27591 37.9026 50.9967
80 8 4.91812 35.073 51.0727
81 3 314.88 34.1926 52.7599
82 6 1.63433 37.004 52.6805
83 9 3.27477 34.1889 52.7635
84 12 4.90402 36.9975 52.6936
85 1 314.88 39.7635 49.2859
86 4 1.64155 42.606 49.2553
87 7 3.28299 39.7635 49.2953
88 10 4.92434 42.6059 49.2784
89 2 1.63665 40.732 50.9424
90 5 314.88 43.5618 50.9142
91 11 3.27101 43.5605 50.9265
92 8 4.91027 40.7291 50.9624
93 3 314.88 39.8178 52.6219
94 6 1.62933 42.6315 52.5916
95 9 3.26365 39.8148 52.6312
96 12 4.88899 42.6264 52.6145
97 1 314.88 45.449 49.2416
98 4 1.64134 48.2921 49.2553
99 7 3.28289 45.4489 49.2553
100 10 4.92381 48.2918 49.2859
101 2 1.63436 46.3926 50.9142
102 5 -4.20169e-14 49.226 50.9265
103 11 3.26673 49.2249 50.9424
104 8 4.90338 46.3901 50.9424
105 3 314.88 45.449 52.578
106 6 1.62533 48.2688 52.5916
107 9 3.25467 45.4467 52.5916
108 12 4.87681 48.2646 52.6219
109 1 314.88 51.1351 49.2784
110 4 1.64095 53.9774 49.3219
111 7 3.28227 51.1349 49.2953
112 10 4.92278 53.9768 49.358
113 2 1.63239 52.0614 50.9624
114 5 314.88 54.9001 50.9997
115 11 3.26318 54.8991 51.0181
116 8 4.89744 52.0592 50.9967
117 3 314.88 51.0943 52.6145
118 6 1.62222 53.925 52.6579
119 9 3.24751 51.0925 52.6312
120 12 4.86724 53.9218 52.6936
121 1 314.88 56.8187 49.3619
122 4 1.64061 59.6588 49.4097
123 7 3.28152 56.8184 49.381
124 10 4.92185 59.6584 49.4495
125 2 1.63085 57.7414 51.0495
126 5 314.88 60.5864 51.0854
127 11 3.26065 60.5857 51.1055
128 8 4.89279 57.7398 51.088
129 3 314.88 56.7638 52.698
130 6 1.62002 59.6095 52.746
131 9 3.24211 56.7624 52.7169
132 12 4.86047 59.6073 52.7853
133 1 -9.3202e-14 62.4981 49.4385
134 4 1.64046 65.3366 49.4628
135 7 3.28103 62.4979 49.4591
136 10 4.92143 65.3364 49.5047
137 2 1.6299 63.4337 51.1202
138 5 -5.39842e-14 66.2831 51.1282
139 11 3.25941 66.2828 51.1491
140 8 4.88991 63.4328 51.1614
141 3 314.88 62.4631 52.7752
142 6 1.61888 65.3217 52.7996
143 9 3.23871 62.4623 52.7955
144 12 4.85694 65.3207 52.841
145 1 314.88 68.1748 49.4579
146 4 1.64049 71.0129 49.4442
147 7 3.28092 68.1748 49.4791
148 10 4.92154 71.013 49.4864
149 2 1.62962 69.1327 51.1273
150 5 314.88 71.9812 51.0968
151 11 3.25949 71.9814 51.1177
152 8 4.88905 69.1326 51.1693
153 3 314.88 68.1832 52.7949
154 6 1.61884 71.0439 52.781
155 9 3.23751 68.1831 52.8158
156 12 4.85682 71.0444 52.8226
157 1 314.88 73.8511 49.4026
158 4 1.64069 76.6899 49.3586
159 7 3.28116 73.8512 49.4234
160 10 4.92209 76.6902 49.3992
161 2 1.62997 74.8274 51.0605
162 5 -9.96644e-14 77.6703 51.0034
163 11 3.26078 77.6708 51.0234
164 8 4.89011 74.8282 51.1015
165 3 -1.07349e-13 73.9007 52.7392
166 6 1.61986 76.7513 52.6949
167 9 3.23853 73.9013 52.7597
168 12 4.85997 76.7531 52.735
169 1 314.88 79.5296 49.2985
170 4 1.64101 82.3705 49.2495
171 7 3.28168 79.5298 49.3181
172 10 4.92294 82.3709 49.287
173 2 1.63088 80.51 50.9527
174 5 -1.036e-13 83.3463 50.8963
175 11 3.26306 83.3471 50.9147
176 8 4.89286 80.5114 50.9911
177 3 -2.28879e-14 79.5939 52.6347
178 6 1.6218 82.4294 52.5858
179 9 3.24157 79.5951 52.6541
180 12 4.86595 82.4321 52.6227
181 1 314.88 85.2124 49.1998
182 4 1.6413 88.0551 49.1737
183 7 3.2823 85.2126 49.2176
184 10 4.9237 88.0553 49.2065
185 2 1.63221 86.1802 50.8601
186 5 314.88 89.0114 50.8316
187 11 3.26606 89.0124 50.8475
188 8 4.89689 86.1819 50.8943
189 3 -7.84184e-14 85.2572 52.5363
190 6 1.62452 88.0802 52.5103
191 9 3.2463 85.2588 52.5538
192 12 4.87433 88.0838 52.5427
193 1 -8.77012e-14 90.898 49.1588
194 4 1.64141 93.7409 49.1737
195 7 3.28271 90.8981 49.1737
196 10 4.9239 93.7408 49.1998
197 2 1.63385 91.8413 50.8316
198 5 -1.08589e-14 94.6693 50.8475
199 11 3.26966 94.6705 50.8601
200 8 4.90187 91.8434 50.8601
201 3 314.88 90.898 52.4955
202 6 1.62804 93.7138 52.5103
203 9 3.25256 90.9001 52.5103
204 12 4.88507 93.7184 52.5363
205 1 314.88 96.5834 49.2065
206 4 1.6412 99.4254 49.27
207 7 3.2826 96.5833 49.2176
208 10 4.92323 99.425 49.287
209 2 1.63582 97.4969 50.8943
210 5 314.88 100.323 50.9613
211 11 3.27398 100.325 50.9691
212 8 4.9078 97.4994 50.9147
213 3 314.88 96.5264 52.5427
214 6 1.63255 99.3391 52.6056
215 9 3.26056 96.529 52.5538
216 12 4.8987 99.345 52.6227
217 1 314.88 102.267 49.3548
218 4 1.64067 105.108 49.4679
219 7 3.28185 102.267 49.3606
220 10 4.92173 105.107 49.4726
221 2 1.6382 103.15 51.0576
222 5 314.88 105.976 51.1765
223 11 3.27931 105.977 51.1779
224 8 4.91496 103.153 51.0669
225 3 -9.49932e-14 102.15 52.6896
226 6 1.63834 104.962 52.8015
227 9 3.27079 102.153 52.6955
228 12 4.91594 104.97 52.8066
229 1 314.88 107.949 49.604
230 4 1.64 110.789 49.7619
231 7 3.28061 107.948 49.6028
232 10 4.9199 110.788 49.7512
233 2 1.64121 108.803 51.3199
234 5 314.88 111.631 51.486
235 11 3.28606 111.633 51.4794
236 8 4.92387 108.807 51.3149
237 3 314.88 107.774 52.9363
238 6 1.64566 110.591 53.093
239 9 3.28379 107.779 52.9354
240 12 4.93736 110.6 53.0828
241 1 314.88 113.628 49.9414
242 4 1.63966 116.466 50.1292
243 7 3.27949 113.628 49.9317
244 10 4.91898 116.466 50.1012
245 2 1.64504 114.462 51.6661
246 5 314.88 117.296 51.8629
247 11 3.29442 117.298 51.8475
248 8 4.935 114.467 51.6442
249 3 314.88 113.409 53.2712
250 6 1.65435 116.238 53.4585
251 9 3.29973 113.415 53.2619
252 12 4.96241 116.248 53.4309
253 1 -4.63641e-14 119.304 50.3291
254 4 1.64019 122.141 50.5146
255 7 3.27958 119.304 50.3108
256 10 4.92038 122.142 50.4709
257 2 1.64961 120.136 52.0542
258 5 314.88 122.981 52.2467
259 11 3.30364 122.983 52.2234
260 8 4.94811 120.141 52.0153
261 3 314.88 119.073 53.6585
262 6 1.66326 121.923 53.8449
263 9 3.31748 119.078 53.6402
264 12 4.98791 121.932 53.801
265 1 -8.13898e-14 124.978 50.6944
266 4 1.64146 127.818 50.8339
267 7 3.28147 124.979 50.6692
268 10 4.92373 127.819 50.7795
269 2 1.65412 125.835 52.4073
270 5 314.88 128.695 52.55
271 11 3.31141 128.696 52.5218
272 8 4.96093 125.839 52.3555
273 3 314.88 124.785 54.0262
274 6 1.67021 127.663 54.1675
275 9 3.33365 124.789 54.0009
276 12 5.00794 127.669 54.1125
277 1 314.88 130.659 50.9506
278 4 1.64247 133.502 51.0109
279 7 3.2839 130.659 50.9217
280 10 4.92637 133.503 50.9516
281 2 1.65723 131.562 52.6398
282 5 -1.09667e-13 134.432 52.7007
283 11 3.31553 134.433 52.6704
284 8 4.9698 131.564 52.5811
285 3 -1.07392e-13 130.551 54.2861
286 6 1.67377 133.447 54.3474
287 9 3.34413 130.553 54.2567
288 12 5.01839 133.45 54.2871
289 1 314.88 136.347 51.0412
290 4 1.64246 139.192 51.0109
291 7 3.28492 136.347 51.0109
292 10 4.92631 139.191 50.9506
293 2 1.65828 137.304 52.7007
294 5 314.88 140.175 52.6704
295 11 3.31558 140.175 52.6398
296 8 4.97281 137.304 52.6398
297 3 314.88 136.347 54.3782
298 6 1.6742 139.246 54.3474
299 9 3.34797 136.347 54.3474
300 12 5.01964 139.245 54.2861
301 1 314.88 142.036 50.9516
302 4 1.6415 144.877 50.8367
303 7 3.28388 142.035 50.9217
304 10 4.92377 144.875 50.7795
305 2 1.6573 143.043 52.5811
306 5 314.88 145.904 52.4677
307 11 3.31169 145.903 52.4391
308 8 4.96997 143.04 52.5218
309 3 314.88 142.142 54.2871
310 6 1.67147 145.028 54.1705
311 9 3.34582 142.14 54.2567
312 12 5.01149 145.023 54.1125
313 1 314.88 147.716 50.7017
314 4 1.64036 150.553 50.5276
315 7 3.28165 147.715 50.6747
316 10 4.92082 150.552 50.4793
317 2 1.65439 148.758 52.3081
318 5 314.88 151.606 52.1395
319 11 3.30448 151.603 52.1162
320 8 4.96165 148.754 52.2558
321 3 314.88 147.905 54.0338
322 6 1.66517 150.765 53.8581
323 9 3.3368 147.901 54.0065
324 12 4.99333 150.756 53.8096
325 1 314.88 153.391 50.3504
326 4 1.63993 156.228 50.1586
327 7 3.28003 153.39 50.3295
328 10 4.91974 156.228 50.1252
329 2 1.65024 154.446 51.9482
330 5 -6.58313e-14 157.282 51.7663
331 11 3.29604 157.279 51.751
332 8 4.94988 154.44 51.9094
333 3 314.88 153.615 53.6801
334 6 1.65666 156.45 53.4882
335 9 3.3217 153.61 53.6592
336 12 4.96901 156.439 53.4551
337 1 314.88 159.067 49.9807
338 4 1.6403 161.906 49.8095
339 7 3.28007 159.067 49.9682
340 10 4.92076 161.906 49.7932
341 2 1.64603 160.112 51.5853
342 5 314.88 162.942 51.4249
343 11 3.28823 162.94 51.4183
344 8 4.93784 160.108 51.5635
345 3 314.88 159.278 53.3108
346 6 1.64804 162.097 53.1408
347 9 3.30443 159.273 53.2986
348 12 4.94428 162.087 53.125
349 1 314.88 164.746 49.6607
350 4 1.64095 167.586 49.5313
351 7 3.28119 164.746 49.6568
352 10 4.92256 167.587 49.531
353 2 1.64236 165.769 51.2808
354 5 314.88 168.597 51.1602
355 11 3.28156 168.595 51.1614
356 8 4.9272 165.765 51.2757
357 3 1.5553e-14 164.914 52.9931
358 6 1.64052 167.726 52.8649
359 9 3.28837 164.909 52.9894
360 12 4.92236 167.718 52.865
361 1 314.88 170.427 49.4253
362 4 1.64143 173.269 49.3451
363 7 3.28237 170.427 49.4288
364 10 4.92393 173.269 49.358
365 2 1.63928 171.423 51.0637
366 5 314.88 174.251 50.9891
367 11 3.27591 174.25 50.9967
368 8 4.91812 171.42 51.0727
369 3 -1.35395e-13 170.54 52.7599
370 6 1.63433 173.351 52.6805
371 9 3.27477 170.536 52.7635
372 12 4.90402 173.345 52.6936
373 1 314.88 176.111 49.2859
374 4 1.64155 178.953 49.2553
375 7 3.28299 176.111 49.2953
376 10 4.92434 178.953 49.2784
377 2 1.63665 177.079 50.9424
378 5 314.88 179.909 50.9142
379 11 3.27101 179.908 50.9265
380 8 4.91027 177.076 50.9624
381 3 314.88 176.165 52.6219
382 6 1.62933 178.979 52.5916
383 9 3.26365 176.162 52.6312
384 12 4.88899 178.973 52.6145
385 1 314.88 181.796 49.2416
386 4 1.64134 184.639 49.2553
387 7 3.28289 181.796 49.2553
388 10 4.92381 184.639 49.2859
389 2 1.63436 182.74 50.9142
390 5 314.88 185.573 50.9265
391 11 3.26673 185.572 50.9424
392 8 4.90338 182.737 50.9424
393 3 314.88 181.796 52.578
394 6 1.62533 184.616 52.5916
395 9 3.25467 181.794 52.5916
396 12 4.87681 184.612 52.6219
397 1 314.88 187.482 49.2784
398 4 1.64095 190.324 49.3219
399 7 3.28227 187.482 49.2953
400 10 4.92278 190.324 49.358
401 2 1.63239 188.408 50.9624
402 5 314.88 191.247 50.9997
403 11 3.26318 191.246 51.0181
404 8 4.89744 188.406 50.9967
405 3 314.88 187.441 52.6145
406 6 1.62222 190.272 52.6579
407 9 3.24751 187.44 52.6312
408 12 4.86724 190.269 52.6936
409 1 314.88 193.166 49.3619
410 4 1.64061 196.006 49.4097
411 7 3.28152 193.165 49.381
412 10 4.92185 196.005 49.4495
413 2 1.63085 194.088 51.0495
414 5 -2.2845e-14 196.933 51.0854
415 11 3.26065 196.933 51.1055
416 8 4.89279 194.087 51.088
417 3 314.88 193.111 52.698
418 6 1.62002 195.957 52.746
419 9 3.24211 193.109 52.7169
420 12 4.86047 195.954 52.7853
421 1 -6.84811e-14 198.845 49.4385
422 4 1.64046 201.684 49.4628
423 7 3.28103 198.845 49.4591
424 10 4.92143 201.683 49.5047
425 2 1.6299 199.781 51.1202
426 5 314.88 202.63 51.1282
427 11 3.25941 202.63 51.1491
428 8 4.88991 199.78 51.1614
429 3 314.88 198.81 52.7752
430 6 1.61888 201.669 52.7996
431 9 3.23871 198.809 52.7955
432 12 4.85694 201.668 52.841
433 1 314.88 204.522 49.4579
434 4 1.64049 207.36 49.4442
435 7 3.28092 204.522 49.4791
436 10 4.92154 207.36 49.4864
437 2 1.62962 205.48 51.1273
438 5 314.88 208.328 51.0968
439 11 3.25949 208.328 51.1177
440 8 4.88905 205.48 51.1693
441 3 314.88 204.53 52.7949
442 6 1.61884 207.391 52.781
443 9 3.23751 204.53 52.8158
444 12 4.85682 207.391 52.8226
445 1 -1.36206e-13 210.198 49.4026
446 4 1.64069 213.037 49.3586
447 7 3.28116 210.198 49.4234
448 10 4.92209 213.037 49.3992
449 2 1.62997 211.174 51.0605
450 5 -4.59016e-14 214.017 51.0034
451 11 3.26078 214.018 51.0234
452 8 4.89011 211.175 51.1015
453 3 -2.03416e-13 210.248 52.7392
454 6 1.61986 213.098 52.6949
455 9 3.23853 210.248 52.7597
456 12 4.85997 213.1 52.735
457 1 -5.14378e-15 215.877 49.2985
458 4 1.64101 218.718 49.2495
459 7 3.28168 215.877 49.3181
460 10 4.92294 218.718 49.287
461 2 1.63088 216.857 50.9527
462 5 -4.22956e-15 219.693 50.8963
463 11 3.26306 219.694 50.9147
464 8 4.89286 216.858 50.9911
465 3 314.88 215.941 52.6347
466 6 1.6218 218.776 52.5858
467 9 3.24157 215.942 52.6541
468 12 4.86595 218.779 52.6227
469 1 1.18395e-14 221.559 49.1998
470 4 1.6413 224.402 49.1737
471 7 3.2823 221.56 49.2176
472 10 4.9237 224.402 49.2065
473 2 1.63221 222.527 50.8601
474 5 314.88 225.358 50.8316
475 11 3.26606 225.359 50.8475
476 8 4.89689 222.529 50.8943
477 3 -5.53402e-15 221.604 52.5363
478 6 1.62452 224.427 52.5103
479 9 3.2463 221.606 52.5538
480 12 4.87433 224.431 52.5427
481 1 314.88 227.245 49.1588
482 4 1.64141 230.088 49.1737
483 7 3.28271 227.245 49.1737
484 10 4.9239 230.088 49.1998
485 2 1.63385 228.188 50.8316
486 5 314.88 231.016 50.8475
487 11 3.26966 231.018 50.8601
488 8 4.90187 228.19 50.8601
489 3 1.83348e-14 227.245 52.4955
490 6 1.62804 230.061 52.5103
491 9 3.25256 227.247 52.5103
492 12 4.88507 230.065 52.5363
493 1 -1.3621e-13 232.93 49.2065
494 4 1.6412 235.772 49.27
495 7 3.2826 232.93 49.2176
496 10 4.92323 235.772 49.287
497 2 1.63582 233.844 50.8943
498 5 -5.85762e-14 236.67 50.9613
499 11 3.27398 236.672 50.9691
500 8 4.9078 233.846 50.9147
501 3 314.88 232.873 52.5427
502 6 1.63255 235.686 52.6056
503 9 3.26056 232.876 52.5538
504 12 4.8987 235.692 52.6227
505 1 314.88 238.614 49.3548
506 4 1.64067 241.455 49.4679
507 7 3.28185 238.614 49.3606
508 10 4.92173 241.454 49.4726
509 2 1.6382 239.497 51.0576
510 5 314.88 242.323 51.1765
511 11 3.27931 242.325 51.1779
512 8 4.91496 239.5 51.0669
513 3 314.88 238.497 52.6896
514 6 1.63834 241.309 52.8015
515 9 3.27079 238.5 52.6955
516 12 4.91594 241.317 52.8066
517 1 314.88 244.296 49.604
518 4 1.64 247.136 49.7619
519 7 3.28061 244.295 49.6028
520 10 4.9199 247.135 49.7512
521 2 1.64121 245.15 51.3199
522 5 314.88 247.978 51.486
523 11 3.28606 247.98 51.4794
524 8 4.92387 245.154 51.3149
525 3 314.88 244.121 52.9363
526 6 1.64566 246.938 53.093
527 9 3.28379 244.126 52.9354
528 12 4.93736 246.947 53.0828
529 1 -2.81875e-14 249.975 49.9414
530 4 1.63966 252.813 50.1292
531 7 3.27949 249.975 49.9317
532 10 4.91898 252.813 50.1012
533 2 1.64504 250.809 51.6661
534 5 1.22905e-14 253.643 51.8629
535 11 3.29442 253.645 51.8475
536 8 4.935 250.814 51.6442
537 3 -5.34187e-14 249.757 53.2712
538 6 1.65435 252.585 53.4585
539 9 3.29973 249.762 53.2619
540 12 4.96241 252.595 53.4309
541 1 -2.6582e-14 255.651 50.3291
542 4 1.64019 258.488 50.5146
543 7 3.27958 255.651 50.3108
544 10 4.92038 258.489 50.4709
545 2 1.64961 256.483 52.0542
546 5 -3.1702e-15 259.328 52.2467
547 11 3.30364 259.33 52.2234
548 8 4.94811 256.488 52.0153
549 3 -8.21258e-14 255.42 53.6585
550 6 1.66326 258.27 53.8449
551 9 3.31748 255.425 53.6402
552 12 4.98791 258.279 53.801
553 1 314.88 261.325 50.6944
554 4 1.64146 264.165 50.8339
555 7 3.28147 261.326 50.6692
556 10 4.92373 264.166 50.7795
557 2 1.65412 262.182 52.4073
558 5 -3.79945e-15 265.042 52.55
559 11 3.31141 265.043 52.5218
560 8 4.96093 262.186 52.3555
561 3 1.45866e-14 261.132 54.0262
562 6 1.67021 264.01 54.1675
563 9 3.33365 261.136 54.0009
564 12 5.00794 264.016 54.1125
565 1 3.41114e-14 267.006 50.9506
566 4 1.64247 269.849 51.0109
567 7 3.2839 267.006 50.9217
568 10 4.92637 269.85 50.9516
569 2 1.65723 267.909 52.6398
570 5 -1.74407e-14 270.779 52.7007
571 11 3.31553 270.78 52.6704
572 8 4.9698 267.911 52.5811
573 3 3.49977e-14 266.898 54.2861
574 6 1.67377 269.795 54.3474
575 9 3.34413 266.9 54.2567
576 12 5.01839 269.797 54.2871
577 1 4.54275e-14 272.694 51.0412
578 4 1.64246 275.539 51.0109
579 7 3.28492 272.694 51.0109
580 10 4.92631 275.538 50.9506
581 2 1.65828 273.651 52.7007
582 5 3.62949e-14 276.523 52.6704
583 11 3.31558 276.522 52.6398
584 8 4.97281 273.652 52.6398
585 3 -8.96441e-14 272.694 54.3782
586 6 1.6742 275.593 54.3474
587 9 3.34797 272.694 54.3474
588 12 5.01964 275.592 54.2861
589 1 314.88 278.383 50.9516
590 4 1.6415 281.224 50.8367
591 7 3.28388 278.382 50.9217
592 10 4.92377 281.222 50.7795
593 2 1.6573 279.39 52.5811
594 5 -3.2289e-14 282.251 52.4677
595 11 3.31169 282.25 52.4391
596 8 4.96997 279.387 52.5218
597 3 6.38313e-14 278.489 54.2871
598 6 1.67147 281.375 54.1705
599 9 3.34582 278.487 54.2567
600 12 5.01149 281.37 54.1125
601 1 314.88 284.063 50.7017
602 4 1.64036 286.901 50.5276
603 7 3.28165 284.062 50.6747
604 10 4.92082 286.899 50.4793
605 2 1.65439 285.105 52.3081
606 5 -5.94327e-15 287.953 52.1395
607 11 3.30448 287.95 52.1162
608 8 4.96165 285.101 52.2558
609 3 7.20819e-15 284.252 54.0338
610 6 1.66517 287.113 53.8581
611 9 3.3368 284.248 54.0065
612 12 4.99333 287.104 53.8096
613 1 -1.56056e-13 289.738 50.3504
614 4 1.63993 292.575 50.1586
615 7 3.28003 289.737 50.3295
616 10 4.91974 292.575 50.1252
617 2 1.65024 290.793 51.9482
618 5 -3.15322e-14 293.629 51.7663
619 11 3.29604 293.626 51.751
620 8 4.94988 290.787 51.9094
621 3 -4.23277e-14 289.962 53.6801
622 6 1.65666 292.797 53.4882
623 9 3.3217 289.957 53.6592
624 12 4.96901 292.786 53.4551
625 1 -6.88809e-15 295.414 49.9807
626 4 1.6403 298.253 49.8095
627 7 3.28007 295.414 49.9682
628 10 4.92076 298.253 49.7932
629 2 1.64603 296.46 51.5853
630 5 -6.82996e-14 299.289 51.4249
631 11 3.28823 299.287 51.4183
632 8 4.93784 296.455 51.5635
633 3 1.85387e-14 295.625 53.3108
634 6 1.64804 298.444 53.1408
635 9 3.30443 295.62 53.2986
636 12 4.94428 298.434 53.125
637 1 -3.65028e-14 301.093 49.6607
638 4 1.64095 303.933 49.5313
639 7 3.28119 301.093 49.6568
640 10 4.92256 303.934 49.531
641 2 1.64236 302.116 51.2808
642 5 4.5917e-16 304.944 51.1602
643 11 3.28156 304.942 51.1614
644 8 4.9272 302.112 51.2757
645 3 -6.21199e-14 301.261 52.9931
646 6 1.64052 304.073 52.8649
647 9 3.28837 301.256 52.9894
648 12 4.92236 304.065 52.865
649 1 -6.42986e-14 306.774 49.4253
650 4 1.64143 309.616 49.3451
651 7 3.28237 306.774 49.4288
652 10 4.92393 309.616 49.358
653 2 1.63928 307.77 51.0637
654 5 -7.41313e-14 310.598 50.9891
655 11 3.27591 310.597 50.9967
656 8 4.91812 307.767 51.0727
657 3 314.88 306.887 52.7599
658 6 1.63433 309.698 52.6805
659 9 3.27477 306.883 52.7635
660 12 4.90402 309.692 52.6936
661 1 -1.8827e-14 312.458 49.2859
662 4 1.64155 315.3 49.2553
663 7 3.28299 312.458 49.2953
664 10 4.92434 315.3 49.2784
665 2 1.63665 313.426 50.9424
666 5 314.88 316.256 50.9142
667 11 3.27101 316.255 50.9265
668 8 4.91027 313.423 50.9624
669 3 -1.28387e-14 312.512 52.6219
670 6 1.62933 315.326 52.5916
671 9 3.26365 312.509 52.6312
672 12 4.88899 315.32 52.6145
673 1 -2.4465e-14 318.143 49.2416
674 4 1.64134 320.986 49.2553
675 7 3.28289 318.143 49.2553
676 10 4.92381 320.986 49.2859
677 2 1.63436 319.087 50.9142
678 5 314.88 321.92 50.9265
679 11 3.26673 321.919 50.9424
680 8 4.90338 319.084 50.9424
681 3 314.88 318.143 52.578
682 6 1.62533 320.963 52.5916
683 9 3.25467 318.141 52.5916
684 12 4.87681 320.959 52.6219
685 1 314.88 323.829 49.2784
686 4 1.64095 326.671 49.3219
687 7 3.28227 323.829 49.2953
688 10 4.92278 326.671 49.358
689 2 1.63239 324.755 50.9624
690 5 -3.3388e-15 327.594 50.9997
691 11 3.26318 327.593 51.0181
692 8 4.89744 324.753 50.9967
693 3 -3.89055e-15 323.788 52.6145
694 6 1.62222 326.619 52.6579
695 9 3.24751 323.787 52.6312
696 12 4.86724 326.616 52.6936
697 1 -7.42051e-14 329.513 49.3619
698 4 1.64061 332.353 49.4097
699 7 3.28152 329.513 49.381
700 10 4.92185 332.352 49.4495
701 2 1.63085 330.436 51.0495
702 5 -1.20694e-13 333.28 51.0854
703 11 3.26065 333.28 51.1055
704 8 4.89279 330.434 51.088
705 3 -1.34337e-13 329.458 52.698
706 6 1.62002 332.304 52.746
707 9 3.24211 329.456 52.7169
708 12 4.86047 332.301 52.7853
709 1 -1.82963e-14 335.192 49.4385
710 4 1.64046 338.031 49.4628
711 7 3.28103 335.192 49.4591
712 10 4.92143 338.03 49.5047
713 2 1.6299 336.128 51.1202
714 5 -7.33732e-14 338.977 51.1282
715 11 3.25941 338.977 51.1491
716 8 4.88991 336.127 51.1614
717 3 314.88 335.157 52.7752
718 6 1.61888 338.016 52.7996
719 9 3.23871 335.156 52.7955
720 12 4.85694 338.015 52.841
721 1 -9.90484e-14 340.869 49.4579
722 4 1.64049 343.707 49.4442
723 7 3.28092 340.869 49.4791
724 10 4.92154 343.707 49.4864
725 2 1.62962 341.827 51.1273
726 5 314.88 344.675 51.0968
727 11 3.25949 344.675 51.1177
728 8 4.88905 341.827 51.1693
729 3 -4.44715e-14 340.877 52.7949
730 6 1.61884 343.738 52.781
731 9 3.23751 340.877 52.8158
732 12 4.85682 343.739 52.8226
733 1 314.88 346.545 49.4026
734 4 1.64069 349.384 49.3586
735 7 3.28116 346.545 49.4234
736 10 4.92209 349.384 49.3992
737 2 1.62997 347.521 51.0605
738 5 314.88 350.364 51.0034
739 11 3.26078 350.365 51.0234
740 8 4.89011 347.522 51.1015
741 3 -9.36715e-14 346.595 52.7392
742 6 1.61986 349.445 52.6949
743 9 3.23853 346.595 52.7597
744 12 4.85997 349.447 52.735
745 1 2.19129e-14 352.224 49.2985
746 4 1.64101 355.065 49.2495
747 7 3.28168 352.224 49.3181
748 10 4.92294 355.065 49.287
749 2 1.63088 353.204 50.9527
750 5 -3.40009e-14 356.04 50.8963
751 11 3.26306 356.041 50.9147
752 8 4.89286 353.205 50.9911
753 3 314.88 352.288 52.6347
754 6 1.6218 355.123 52.5858
755 9 3.24157 352.289 52.6541
756 12 4.86595 355.126 52.6227
757 1 314.88 357.906 49.1998
758 4 1.6413 360.749 49.1737
759 7 3.2823 357.907 49.2176
760 10 4.9237 360.749 49.2065
761 2 1.63221 358.874 50.8601
762 5 -1.6017e-14 361.705 50.8316
763 11 3.26606 361.706 50.8475
764 8 4.89689 358.876 50.8943
765 3 314.88 357.951 52.5363
766 6 1.62452 360.774 52.5103
767 9 3.2463 357.953 52.5538
768 12 4.87433 360.778 52.5427
769 1 314.88 363.592 49.1588
770 4 1.64141 366.435 49.1737
771 7 3.28271 363.592 49.1737
772 10 4.9239 366.435 49.1998
773 2 1.63385 364.535 50.8316
774 5 314.88 367.363 50.8475
775 11 3.26966 367.365 50.8601
776 8 4.90187 364.537 50.8601
777 3 314.88 363.592 52.4955
778 6 1.62804 366.408 52.5103
779 9 3.25256 363.594 52.5103
780 12 4.88507 366.413 52.5363
781 1 -8.12191e-14 369.278 49.2065
782 4 1.6412 372.119 49.27
783 7 3.2826 369.277 49.2176
784 10 4.92323 372.119 49.287
785 2 1.63582 370.191 50.8943
786 5 314.88 373.017 50.9613
787 11 3.27398 373.019 50.9691
788 8 4.9078 370.193 50.9147
789 3 8.48222e-14 369.22 52.5427
790 6 1.63255 372.033 52.6056
791 9 3.26056 369.223 52.5538
792 12 4.8987 372.039 52.6227
793 1 -1.19475e-13 374.961 49.3548
794 4 1.64067 377.802 49.4679
795 7 3.28185 374.961 49.3606
796 10 4.92173 377.801 49.4726
797 2 1.6382 375.844 51.0576
798 5 314.88 378.67 51.1765
799 11 3.27931 378.672 51.1779
800 8 4.91496 375.847 51.0669
801 3 314.88 374.844 52.6896
802 6 1.63834 377.656 52.8015
803 9 3.27079 374.847 52.6955
804 12 4.91594 377.664 52.8066
805 1 314.88 380.643 49.604
806 4 1.64 383.483 49.7619
807 7 3.28061 380.642 49.6028
808 10 4.9199 383.482 49.7512
809 2 1.64121 381.497 51.3199
810 5 -6.42408e-14 384.325 51.486
811 11 3.28606 384.327 51.4794
812 8 4.92387 381.501 51.3149
813 3 314.88 380.468 52.9363
814 6 1.64566 383.285 53.093
815 9 3.28379 380.473 52.9354
816 12 4.93736 383.294 53.0828
817 1 314.88 386.322 49.9414
818 4 1.63966 389.16 50.1292
819 7 3.27949 386.322 49.9317
820 10 4.91898 389.161 50.1012
821 2 1.64504 387.156 51.6661
822 5 -1.33345e-13 389.99 51.8629
823 11 3.29442 389.993 51.8475
824 8 4.935 387.161 51.6442
825 3 -3.0576e-14 386.104 53.2712
826 6 1.65435 388.932 53.4585
827 9 3.29973 386.109 53.2619
828 12 4.96241 388.942 53.4309
829 1 -9.87845e-14 391.998 50.3291
830 4 1.64019 394.835 50.5146
831 7 3.27958 391.998 50.3108
832 10 4.92038 394.836 50.4709
833 2 1.64961 392.83 52.0542
834 5 314.88 395.675 52.2467
835 11 3.30364 395.677 52.2234
836 8 4.94811 392.835 52.0153
837 3 314.88 391.767 53.6585
838 6 1.66326 394.617 53.8449
839 9 3.31748 391.772 53.6402
840 12 4.98791 394.626 53.801
841 1 -5.07029e-14 397.672 50.6944
842 4 1.64146 400.512 50.8339
843 7 3.28147 397.673 50.6692
844 10 4.92373 400.513 50.7795
845 2 1.65412 398.529 52.4073
846 5 3.84831e-15 401.389 52.55
847 11 3.31141 401.39 52.5218
848 8 4.96093 398.533 52.3555
849 3 -8.38886e-14 397.479 54.0262
850 6 1.67021 400.357 54.1675
851 9 3.33365 397.483 54.0009
852 12 5.00794 400.363 54.1125
853 1 314.88 403.353 50.9506
854 4 1.64247 406.196 51.0109
855 7 3.2839 403.353 50.9217
856 10 4.92637 406.197 50.9516
857 2 1.65723 404.256 52.6398
858 5 -1.23985e-13 407.126 52.7007
859 11 3.31553 407.127 52.6704
860 8 4.9698 404.258 52.5811
861 3 314.88 403.245 54.2861
862 6 1.67377 406.142 54.3474
863 9 3.34413 403.247 54.2567
864 12 5.01839 406.144 54.2871
865 1 -7.12796e-14 409.041 51.0412
866 4 1.64246 411.886 51.0109
867 7 3.28492 409.041 51.0109
868 10 4.92631 411.885 50.9506
869 2 1.65828 409.999 52.7007
870 5 -2.95896e-14 412.87 52.6704
871 11 3.31558 412.869 52.6398
872 8 4.97281 409.999 52.6398
873 3 314.88 409.041 54.3782
874 6 1.6742 411.94 54.3474
875 9 3.34797 409.041 54.3474
876 12 5.01964 411.939 54.2861
877 1 -9.45923e-14 414.73 50.9516
878 4 1.6415 417.571 50.8367
879 7 3.28388 414.729 50.9217
880 10 4.92377 417.569 50.7795
881 2 1.6573 415.737 52.5811
882 5 -1.37657e-13 418.598 52.4677
883 11 3.31169 418.597 52.4391
884 8 4.96997 415.734 52.5218
885 3 314.88 414.836 54.2871
886 6 1.67147 417.722 54.1705
887 9 3.34582 414.834 54.2567
888 12 5.01149 417.717 54.1125
889 1 -4.31072e-14 420.41 50.7017
890 4 1.64036 423.248 50.5276
891 7 3.28165 420.409 50.6747
892 10 4.92082 423.246 50.4793
893 2 1.65439 421.452 52.3081
894 5 314.88 424.3 52.1395
895 11 3.30448 424.297 52.1162
896 8 4.96165 421.448 52.2558
897 3 314.88 420.599 54.0338
898 6 1.66517 423.46 53.8581
899 9 3.3368 420.595 54.0065
900 12 4.99333 423.451 53.8096
901 1 9.29288e-15 426.085 50.3504
902 4 1.63993 428.922 50.1586
903 7 3.28003 426.084 50.3295
904 10 4.91974 428.922 50.1252
905 2 1.65024 427.14 51.9482
906 5 314.88 429.976 51.7663
907 11 3.29604 429.973 51.751
908 8 4.94988 427.134 51.9094
909 3 314.88 426.309 53.6801
910 6 1.65666 429.144 53.4882
911 9 3.3217 426.304 53.6592
912 12 4.96901 429.133 53.4551
913 1 -7.55174e-14 431.761 49.9807
914 4 1.6403 434.6 49.8095
915 7 3.28007 431.761 49.9682
916 10 4.92076 434.6 49.7932
917 2 1.64603 432.807 51.5853
918 5 314.88 435.636 51.4249
919 11 3.28823 435.634 51.4183
920 8 4.93784 432.802 51.5635
921 3 314.88 431.972 53.3108
922 6 1.64804 434.791 53.1408
923 9 3.30443 431.967 53.2986
924 12 4.94428 434.781 53.125
925 1 314.88 437.44 49.6607
926 4 1.64095 440.28 49.5313
927 7 3.28119 437.44 49.6568
928 10 4.92256 440.281 49.531
929 2 1.64236 438.463 51.2808
930 5 314.88 441.291 51.1602
931 11 3.28156 441.289 51.1614
932 8 4.9272 438.459 51.2757
933 3 8.05515e-16 437.608 52.9931
934 6 1.64052 440.42 52.8649
935 9 3.28837 437.603 52.9894
936 12 4.92236 440.412 52.865
937 1 314.88 443.121 49.4253
938 4 1.64143 445.963 49.3451
939 7 3.28237 443.121 49.4288
940 10 4.92393 445.963 49.358
941 2 1.63928 444.117 51.0637
942 5 314.88 446.945 50.9891
943 11 3.27591 446.944 50.9967
944 8 4.91812 444.114 51.0727
945 3 314.88 443.234 52.7599
946 6 1.63433 446.045 52.6805
947 9 3.27477 443.23 52.7635
948 12 4.90402 446.039 52.6936
949 1 314.88 448.805 49.2859
950 4 1.64155 451.647 49.2553
951 7 3.28299 448.805 49.2953
952 10 4.92434 451.647 49.2784
953 2 1.63665 449.773 50.9424
954 5 314.88 452.603 50.9142
955 11 3.27101 452.602 50.9265
956 8 4.91027 449.77 50.9624
957 3 314.88 448.859 52.6219
958 6 1.62933 451.673 52.5916
959 9 3.26365 448.856 52.6312
960 12 4.88899 451.667 52.6145
961 1 314.88 454.49 49.2416
962 4 1.64134 457.333 49.2553
963 7 3.28289 454.49 49.2553
964 10 4.92381 457.333 49.2859
965 2 1.63436 455.434 50.9142
966 5 314.88 458.267 50.9265
967 11 3.26673 458.266 50.9424
968 8 4.90338 455.431 50.9424
969 3 314.88 454.49 52.578
970 6 1.62533 457.31 52.5916
971 9 3.25467 454.488 52.5916
972 12 4.87681 457.306 52.6219
973 1 314.88 460.176 49.2784
974 4 1.64095 463.018 49.3219
975 7 3.28227 460.176 49.2953
976 10 4.92278 463.018 49.358
977 2 1.63239 461.102 50.9624
978 5 314.88 463.941 50.9997
979 11 3.26318 463.94 51.0181
980 8 4.89744 461.1 50.9967
981 3 -1.43029e-13 460.135 52.6145
982 6 1.62222 462.966 52.6579
983 9 3.24751 460.134 52.6312