ITEM: TIMESTEP
728
ITEM: NUMBER OF ATOMS
2814
ITEM: BOX BOUNDS xy xz yz pp pp pp
0.0000000000000000e+00 1.0654952651382115e+02 3.5516508838594895e+01
0.0000000000000000e+00 6.1516397814722886e+01 0.0000000000000000e+00
0.0000000000000000e+00 3.5000000000000000e+01 0.0000000000000000e+00
ITEM: ATOMS id type x y z
1 1 35.3696 58.2378 5.73926
2 2 39.1689 58.0598 4.1102
3 3 39.144 58.079 7.39818
4 1 38.2822 59.7501 5.73933
5 2 42.089 59.5821 4.13099
6 3 42.0499 59.5894 7.4189
7 1 41.195 61.2657 5.76087
8 2 45.0037 61.1134 4.16771
9 3 44.9572 61.1098 7.45568
10 1 32.3255 53.4414 5.79945
11 2 36.1124 53.2585 4.14934
12 3 36.1032 53.3017 7.43726
13 1 35.2283 54.959 5.77083
14 2 39.0288 54.7774 4.14041
15 3 39.0042 54.8122 7.4283
16 1 38.1378 56.4731 5.76081
17 2 41.9482 56.2995 4.15054
18 3 41.9096 56.3234 7.43843
19 1 41.0504 57.9888 5.77142
20 2 44.8654 57.8299 4.17728
21 3 44.8181 57.8423 7.46524
22 1 43.9632 59.5121 5.80024
23 2 47.7767 59.3731 4.21402
24 3 47.7285 59.3758 7.50219
25 1 46.8734 61.0487 5.84067
26 2 50.6797 60.9327 4.25227
27 3 50.6381 60.9289 7.54073
28 1 29.3264 48.6218 5.88368
29 2 33.0959 48.4561 4.22397
30 3 33.0955 48.5023 7.5123
31 1 32.2065 50.156 5.84677
32 2 35.9923 49.9804 4.19791
33 3 35.982 50.0278 7.48603
34 1 35.0993 51.6798 5.81632
35 2 38.9006 51.5017 4.18337
36 3 38.8776 51.5446 7.47137
37 1 38.0023 53.1978 5.79934
38 2 41.8158 53.0248 4.18451
39 3 41.7801 53.0592 7.47248
40 1 40.9119 54.7153 5.80007
41 2 44.7325 54.5547 4.20126
42 3 44.6875 54.5785 7.48928
43 1 43.8244 56.2385 5.81839
44 2 47.646 56.096 4.22908
45 3 47.5985 56.11 7.51726
46 1 46.7371 57.7732 5.84968
47 2 50.5535 57.6526 4.26068
48 3 50.5105 57.659 7.54908
49 1 49.6471 59.3243 5.88615
50 2 53.4543 59.2262 4.28905
51 3 53.4209 59.228 7.57764
52 1 52.5524 60.8939 5.91994
53 2 56.3491 60.8162 4.31015
54 3 56.3269 60.8156 7.59883
55 1 26.3841 43.7697 5.94613
56 2 30.1388 43.6346 4.29005
57 3 30.1388 43.6648 7.57881
58 1 29.2395 45.3251 5.92135
59 2 33.0079 45.1753 4.26785
60 3 33.0041 45.2138 7.5565
61 1 32.1073 46.8682 5.89319
62 2 35.8919 46.7068 4.24597
63 3 35.8815 46.75 7.53444
64 1 34.9885 48.4001 5.86621
65 2 38.7898 48.2331 4.22999
66 3 38.77 48.2756 7.51829
67 1 37.8823 49.9242 5.84676
68 2 41.6979 49.7588 4.22505
69 3 41.6674 49.7959 7.51325
70 1 40.7859 51.4456 5.84036
71 2 44.611 51.289 4.23334
72 3 44.5716 51.3178 7.52152
73 1 43.6955 52.97 5.84924
74 2 47.5241 52.8288 4.25269
75 3 47.4805 52.8486 7.54094
76 1 46.6077 54.5039 5.87109
77 2 50.4332 54.3821 4.27744
78 3 50.3918 54.3947 7.56581
79 1 49.5193 56.0523 5.89984
80 2 53.3368 55.9513 4.30104
81 3 53.3028 55.9594 7.58954
82 1 52.4281 57.6181 5.92821
83 2 56.2352 57.5368 4.31888
84 3 56.2109 57.5425 7.60746
85 1 55.3324 59.2015 5.95082
86 2 59.1294 59.1368 4.3296
87 3 59.1146 59.1413 7.61823
88 1 58.2317 60.7999 5.96575
89 2 62.0208 60.7483 4.33456
90 3 62.0132 60.7515 7.62323
91 1 23.4854 38.8911 5.97419
92 2 27.2313 38.7825 4.32455
93 3 27.2291 38.7951 7.61334
94 1 26.324 40.4633 5.96372
95 2 30.0795 40.3436 4.31494
96 3 30.0754 40.3638 7.60377
97 1 29.1707 42.0263 5.9496
98 2 32.9389 41.8944 4.30171
99 3 32.9328 41.9223 7.59053
100 1 32.0282 43.5786 5.93151
101 2 35.8117 43.4355 4.28613
102 3 35.8022 43.4693 7.57487
103 1 34.8986 45.12 5.91136
104 2 38.6987 44.9693 4.27193
105 3 38.6834 45.0052 7.56053
106 1 37.7823 46.6523 5.89355
107 2 41.598 46.4999 4.26403
108 3 41.5748 46.5332 7.55251
109 1 40.6778 48.1794 5.88356
110 2 44.5054 48.0322 4.26611
111 3 44.4741 48.0595 7.5545
112 1 43.582 49.7069 5.88528
113 2 47.4156 49.5712 4.27836
114 3 47.3791 49.5912 7.56672
115 1 46.4912 51.2408 5.89884
116 2 50.3242 51.1215 4.29713
117 3 50.2873 51.1351 7.58552
118 1 49.4018 52.787 5.92027
119 2 53.2284 52.6859 4.31674
120 3 53.1961 52.6957 7.60518
121 1 52.3111 54.349 5.94331
122 2 56.1278 54.2659 4.33223
123 3 56.1032 54.2742 7.62072
124 1 55.217 55.9279 5.96239
125 2 59.0231 55.8606 4.34126
126 3 59.0067 55.8688 7.62978
127 1 58.1189 57.5225 5.97474
128 2 61.9156 57.4678 4.34425
129 3 61.9062 57.4759 7.63281
130 1 61.0166 59.1296 5.98064
131 2 64.8064 59.0844 4.34333
132 3 64.8018 59.0918 7.63194
133 1 63.9107 60.7457 5.98227
134 2 67.6963 60.7073 4.34093
135 3 67.6946 60.713 7.62959
136 1 20.6108 33.9969 5.98217
137 2 24.352 33.9033 4.33587
138 3 24.349 33.9068 7.62464
139 1 23.4411 35.5791 5.9787
140 2 27.1889 35.4805 4.33427
141 3 27.1837 35.4878 7.62306
142 1 26.2755 37.1564 5.97457
143 2 30.0323 37.0507 4.33105
144 3 30.0258 37.063 7.61988
145 1 29.1165 38.7267 5.96845
146 2 32.8849 38.6122 4.32487
147 3 32.8777 38.6303 7.61373
148 1 31.9666 40.2881 5.95907
149 2 35.7491 40.1641 4.3154
150 3 35.7409 40.1876 7.60425
151 1 34.8282 41.8396 5.94636
152 2 38.6266 41.7075 4.30447
153 3 38.6158 41.7341 7.59325
154 1 37.7027 43.3814 5.93256
155 2 41.5169 43.2452 4.29594
156 3 41.5011 43.2712 7.5846
157 1 40.5897 44.9161 5.922
158 2 44.4174 44.7814 4.29397
159 3 44.3951 44.8034 7.58252
160 1 43.4871 46.4482 5.91917
161 2 47.3232 46.3212 4.30065
162 3 47.2953 46.3373 7.58912
163 1 46.3915 47.9836 5.92621
164 2 50.2296 47.8692 4.3145
165 3 50.1992 47.8799 7.60292
166 1 49.299 49.5281 5.94145
167 2 53.1329 49.4293 4.33114
168 3 53.1043 49.4366 7.61955
169 1 52.2065 51.0863 5.96011
170 2 56.0316 51.0034 4.34563
171 3 56.0082 51.0101 7.63403
172 1 55.1116 52.6604 5.97676
173 2 58.9261 52.5919 4.35466
174 3 58.9092 52.5998 7.64307
175 1 58.0133 54.2501 5.9878
176 2 61.8174 54.1933 4.35751
177 3 61.8067 54.203 7.64595
178 1 60.9112 55.8531 5.99242
179 2 64.7068 55.8053 4.35552
180 3 64.7009 55.816 7.644
181 1 63.8059 57.4664 5.99208
182 2 67.5954 57.425 4.3509
183 3 67.5925 57.4355 7.63944
184 1 66.6982 59.0865 5.98915
185 2 70.4838 59.0493 4.34571
186 3 70.4828 59.0585 7.6343
187 1 69.589 60.7105 5.98579
188 2 73.3725 60.6755 4.34121
189 3 73.3732 60.6826 7.62985
190 1 17.7448 29.0963 5.98334
191 2 21.4838 29.008 4.33857
192 3 21.4813 29.0083 7.62734
193 1 20.5728 30.6825 5.98224
194 2 24.3161 30.5941 4.3396
195 3 24.3113 30.5963 7.62837
196 1 23.4022 32.2677 5.98173
197 2 27.152 32.1777 4.34079
198 3 27.1453 32.1822 7.62956
199 1 26.2347 33.85 5.98144
200 2 29.9931 33.7565 4.34122
201 3 29.9856 33.7639 7.63001
202 1 29.0725 35.4274 5.98034
203 2 32.8416 35.3282 4.3395
204 3 32.8343 35.3393 7.62833
205 1 31.9181 36.9976 5.977
206 2 35.6999 36.8912 4.3346
207 3 35.6932 36.9062 7.62345
208 1 34.7735 38.5591 5.97036
209 2 38.5699 38.4452 4.32692
210 3 38.563 38.463 7.61575
211 1 37.6407 40.111 5.96096
212 2 41.4524 39.9915 4.31896
213 3 41.4432 40.0098 7.60773
214 1 40.5201 41.6545 5.95156
215 2 44.3459 41.5335 4.31459
216 3 44.3321 41.5493 7.60326
217 1 43.4105 43.1928 5.9463
218 2 47.2467 43.0756 4.31699
219 3 47.2276 43.0868 7.60555
220 1 46.3092 44.731 5.94853
221 2 50.1501 44.6228 4.32667
222 3 50.127 44.629 7.61512
223 1 49.2125 46.2749 5.95873
224 2 53.0517 46.1792 4.3409
225 3 53.0278 46.1823 7.62928
226 1 52.117 47.8297 5.97391
227 2 55.949 47.7479 4.35521
228 3 55.9278 47.7504 7.64356
229 1 55.0198 49.3988 5.98925
230 2 58.8416 49.3299 4.36565
231 3 58.8252 49.3344 7.65397
232 1 57.9194 50.9828 6.00055
233 2 61.7304 50.925 4.3703
234 3 61.7191 50.9325 7.65862
235 1 60.8154 52.5807 6.00583
236 2 64.6166 52.5313 4.36941
237 3 64.6097 52.5417 7.65776
238 1 63.7083 54.1898 6.00547
239 2 67.5017 54.1462 4.36461
240 3 67.4978 54.1585 7.65301
241 1 66.5988 55.807 6.00133
242 2 70.3865 55.7672 4.35786
243 3 70.3846 55.78 7.64632
244 1 69.488 57.4293 5.99556
245 2 73.2719 57.3914 4.3507
246 3 73.2716 57.4035 7.63921
247 1 72.3768 59.0541 5.98983
248 2 76.1583 59.016 4.34376
249 3 76.1602 59.0266 7.63231
250 1 75.2662 60.6787 5.98486
251 2 79.0462 60.6381 4.33657
252 3 79.052 60.6467 7.62516
253 1 14.875 24.1967 5.98025
254 2 18.6145 24.1075 4.33792
255 3 18.6119 24.1046 7.62666
256 1 17.7058 25.7814 5.98199
257 2 21.4471 25.6956 4.34079
258 3 21.4428 25.6954 7.62956
259 1 20.5353 27.369 5.9833
260 2 24.2808 27.2857 4.34338
261 3 24.275 27.2873 7.63215
262 1 23.3655 28.9575 5.9848
263 2 27.1173 28.8752 4.34594
264 3 27.1103 28.8782 7.63469
265 1 26.1981 30.5449 5.98657
266 2 29.9581 30.4618 4.34801
267 3 29.9507 30.4664 7.63675
268 1 29.0351 32.1289 5.98807
269 2 32.8048 32.0429 4.34857
270 3 32.7982 32.0496 7.63732
271 1 31.8783 33.7075 5.98815
272 2 35.6596 33.6164 4.34641
273 3 35.6544 33.6256 7.6352
274 1 34.73 35.2786 5.98547
275 2 38.5245 35.1809 4.34116
276 3 38.5206 35.1923 7.62998
277 1 37.592 36.8406 5.97959
278 2 41.4008 36.7366 4.33414
279 3 41.3965 36.7489 7.62294
280 1 40.4652 38.3935 5.97186
281 2 44.2882 38.2856 4.32844
282 3 44.2812 38.2964 7.61716
283 1 43.3494 39.9392 5.96554
284 2 47.184 39.8316 4.32757
285 3 47.1725 39.8388 7.6162
286 1 46.2425 41.4816 5.96434
287 2 50.0841 41.3793 4.33352
288 3 50.0679 41.382 7.62203
289 1 49.1414 43.0261 5.97032
290 2 52.9838 42.9333 4.3453
291 3 52.9649 42.9325 7.6337
292 1 52.0424 44.5783 5.9824
293 2 55.8797 44.4972 4.35942
294 3 55.8612 44.4953 7.64774
295 1 54.9424 46.1424 5.99688
296 2 58.7705 46.0732 4.37174
297 3 58.7549 46.0729 7.65999
298 1 57.8393 47.7205 6.00937
299 2 61.6564 47.6618 4.37932
300 3 61.645 47.6649 7.66754
301 1 60.7324 49.3123 6.01686
302 2 64.5388 49.2618 4.38127
303 3 64.5313 49.2689 7.6695
304 1 63.622 50.9162 6.01854
305 2 67.4192 50.8712 4.37837
306 3 67.4147 50.8819 7.66664
307 1 66.5089 52.5292 6.0154
308 2 70.2988 52.4876 4.3722
309 3 70.2963 52.5008 7.66052
310 1 69.3943 54.1486 6.00923
311 2 73.1786 54.1084 4.36427
312 3 73.1777 54.1227 7.65264
313 1 72.2792 55.7717 6.00176
314 2 76.0595 55.7308 4.35546
315 3 76.0605 55.7453 7.64387
316 1 75.1649 57.3957 5.99405
317 2 78.9419 57.3521 4.34563
318 3 78.9464 57.3659 7.63409
319 1 78.0522 59.018 5.98614
320 2 81.8265 58.9691 4.33352
321 3 81.8369 58.9817 7.62203
322 1 80.9422 60.6355 5.97691
323 2 84.7142 60.5781 4.31699
324 3 84.7335 60.5891 7.60555
325 1 11.9876 19.3064 5.96434
326 2 15.7326 19.2119 4.32844
327 3 15.7268 19.2004 7.61716
328 1 14.8275 20.8834 5.97452
329 2 18.5704 20.7952 4.33727
330 3 18.5649 20.7897 7.62603
331 1 17.6626 22.4677 5.98084
332 2 21.4067 22.3852 4.34299
333 3 21.4011 22.3834 7.63177
334 1 20.4955 24.057 5.98501
335 2 24.2435 23.979 4.34709
336 3 24.2374 23.9794 7.63585
337 1 23.3283 25.6489 5.98823
338 2 27.0822 25.5739 4.35039
339 3 27.0757 25.5757 7.63911
340 1 26.1628 27.2412 5.99113
341 2 29.9242 27.1675 4.35302
342 3 29.9178 27.1703 7.64171
343 1 29.0006 28.8317 5.99371
344 2 32.771 28.757 4.35442
345 3 32.7655 28.761 7.6431
346 1 31.8435 30.4181 5.99526
347 2 35.6244 30.34 4.3536
348 3 35.6207 30.3456 7.64231
349 1 34.6935 31.9982 5.99466
350 2 38.4863 31.9145 4.34985
351 3 38.4845 31.9217 7.63861
352 1 37.5522 33.5699 5.99103
353 2 41.3582 33.4796 4.34367
354 3 41.3573 33.4878 7.63246
355 1 40.421 35.1323 5.98478
356 2 44.2405 35.0364 4.33727
357 3 44.2384 35.0439 7.62603
358 1 43.3001 36.686 5.97812
359 2 47.1319 36.5875 4.33397
360 3 47.1263 36.5922 7.62266
361 1 46.1883 38.2338 5.97452
362 2 50.0288 38.137 4.33657
363 3 50.0185 38.1377 7.62516
364 1 49.083 39.7802 5.97691
365 2 52.9267 39.6896 4.34563
366 3 52.9125 39.6866 7.63409
367 1 51.9807 41.3309 5.98591
368 2 55.8216 41.2497 4.35892
369 3 55.806 41.2447 7.64726
370 1 54.8781 42.8906 5.99922
371 2 58.7112 42.8201 4.37263
372 3 58.6967 42.8157 7.66087
373 1 57.7725 44.4626 6.01284
374 2 61.595 44.4022 4.38321
375 3 61.5836 44.4007 7.67138
376 1 60.6627 46.0479 6.0231
377 2 64.4739 45.9958 4.38872
378 3 64.4661 45.9983 7.67687
379 1 63.5488 47.6456 6.02806
380 2 67.3495 47.5993 4.38903
381 3 67.3448 47.6061 7.67718
382 1 66.4314 49.2534 6.02768
383 2 70.2234 49.2105 4.38514
384 3 70.2208 49.2209 7.67333
385 1 69.3118 50.8687 6.02316
386 2 73.0967 50.827 4.37836
387 3 73.0956 50.8401 7.66659
388 1 72.1912 52.4887 6.01603
389 2 75.9705 52.446 4.3696
390 3 75.9711 52.461 7.65788
391 1 75.071 54.1109 6.00743
392 2 78.8455 54.065 4.35892
393 3 78.849 54.0811 7.64726
394 1 77.9523 55.7325 5.99766
395 2 81.7225 55.6809 4.3453
396 3 81.7312 55.6976 7.6337
397 1 80.8362 57.3507 5.98591
398 2 84.6024 57.2902 4.32667
399 3 84.6194 57.307 7.61512
400 1 83.724 58.962 5.97032
401 2 87.4867 58.8891 4.30065
402 3 87.5146 58.9052 7.58912
403 1 86.6166 60.5624 5.94853
404 2 90.3774 60.4739 4.26611
405 3 90.4167 60.4874 7.5545
406 1 9.06413 14.4368 5.91917
407 2 12.8231 14.3321 4.29594
408 3 12.8085 14.3054 7.5846
409 1 11.9217 15.9982 5.9463
410 2 15.6732 15.9031 4.31896
411 3 15.6619 15.8859 7.60773
412 1 14.77 17.5721 5.96554
413 2 18.5177 17.4858 4.33414
414 3 18.5093 17.476 7.62294
415 1 17.612 19.156 5.97812
416 2 21.3597 19.0774 4.34367
417 3 21.3531 19.0725 7.63246
418 1 20.4505 20.7469 5.98609
419 2 24.2012 20.6746 4.34971
420 3 24.1954 20.6728 7.63846
421 1 23.2878 22.3422 5.99134
422 2 27.0437 22.2744 4.35381
423 3 27.0383 22.2744 7.6425
424 1 26.1257 23.9393 5.99516
425 2 29.8886 23.8741 4.3567
426 3 29.8836 23.8753 7.64535
427 1 28.966 25.5359 5.99814
428 2 32.7371 25.4709 4.35835
429 3 32.7331 25.4732 7.64697
430 1 31.8103 27.1295 6.00013
431 2 35.5908 27.0624 4.3581
432 3 35.5885 27.0659 7.64674
433 1 34.6602 28.7179 6.00037
434 2 38.4515 28.646 4.35522
435 3 38.4512 28.6509 7.64392
436 1 37.5174 30.2987 5.99796
437 2 41.3206 30.2203 4.34971
438 3 41.322 30.2262 7.63846
439 1 40.3833 31.8703 5.99276
440 2 44.1993 31.7851 4.34299
441 3 44.2005 31.7908 7.63177
442 1 43.2586 33.4323 5.98609
443 2 47.0869 33.342 4.33792
444 3 47.0857 33.3458 7.62666
445 1 46.1428 34.9863 5.98084
446 2 49.981 34.8945 4.33761
447 3 49.9755 34.8948 7.62628
448 1 49.0339 36.5359 5.98025
449 2 52.8775 36.447 4.34376
450 3 52.8674 36.4434 7.63231
451 1 51.9288 38.0862 5.98614
452 2 55.772 38.004 4.35546
453 3 55.759 37.9977 7.64387
454 1 54.8241 39.6424 5.99766
455 2 58.6612 39.5693 4.3696
456 3 58.6479 39.5624 7.65788
457 1 57.7167 41.2087 6.01163
458 2 61.5439 41.1452 4.38244
459 3 61.5327 41.14 7.67062
460 1 60.6049 42.7872 6.02423
461 2 64.4204 42.7322 4.39127
462 3 64.4124 42.7303 7.67937
463 1 63.4881 44.3781 6.03262
464 2 67.2921 44.3295 4.39505
465 3 67.2873 44.3316 7.68312
466 1 66.3668 45.9797 6.03577
467 2 70.1606 45.9351 4.39418
468 3 70.1584 45.9412 7.68227
469 1 69.2422 47.5898 6.03419
470 2 73.0275 47.5467 4.38969
471 3 73.027 47.5561 7.67781
472 1 72.1157 49.2056 6.02904
473 2 75.8939 49.1616 4.38244
474 3 75.8949 49.1739 7.67062
475 1 74.9886 50.8247 6.02138
476 2 78.7607 50.7773 4.37263
477 3 78.7641 50.7921 7.66087
478 1 77.8624 52.4443 6.01163
479 2 81.6289 52.3909 4.35942
480 3 81.6365 52.4079 7.64774
481 1 80.7383 54.0617 5.99922
482 2 84.4995 53.9991 4.3409
483 3 84.5141 54.0182 7.62928
484 1 83.6178 55.6736 5.9824
485 2 87.3742 55.598 4.3145
486 3 87.3986 55.619 7.60292
487 1 86.502 57.276 5.95873
488 2 90.2551 57.184 4.27836
489 3 90.2907 57.2057 7.56672
490 1 89.3923 58.8648 5.92621
491 2 93.1451 58.754 4.23334
492 3 93.1897 58.7737 7.52152
493 1 92.2894 60.4362 5.88528
494 2 96.0459 60.3068 4.18451
495 3 96.0936 60.3206 7.47248
496 1 6.08692 9.59884 5.84036
497 2 9.86706 9.4764 4.22999
498 3 9.84011 9.43799 7.51829
499 1 8.9695 11.1383 5.88356
500 2 12.739 11.0294 4.27193
501 3 12.7157 10.9982 7.56053
502 1 11.8397 12.6937 5.922
503 2 15.5999 12.5978 4.30447
504 3 15.5824 12.5752 7.59325
505 1 14.6991 14.2642 5.95156
506 2 18.4536 14.1799 4.32692
507 3 18.4416 14.165 7.61575
508 1 17.5507 15.8472 5.97186
509 2 21.3032 15.7728 4.34116
510 3 21.2953 15.7636 7.62998
511 1 20.3971 17.4395 5.98478
512 2 24.1511 17.3729 4.34985
513 3 24.1457 17.3677 7.63861
514 1 23.2409 19.0378 5.99276
515 2 26.9991 18.9769 4.35522
516 3 26.995 18.9742 7.64392
517 1 26.0841 20.6394 5.99783
518 2 29.8484 20.582 4.35866
519 3 29.8451 20.581 7.64729
520 1 28.9285 22.2415 6.00125
521 2 32.7002 22.1853 4.36062
522 3 32.6977 22.1857 7.64921
523 1 31.7756 23.8418 6.00342
524 2 35.5558 23.7841 4.36083
525 3 35.5547 23.786 7.64942
526 1 34.6269 25.4377 6.00401
527 2 38.4168 25.3759 4.35866
528 3 38.4177 25.3793 7.64729
529 1 37.4841 27.0269 6.00228
530 2 41.2848 26.9587 4.35381
531 3 41.2876 26.9634 7.6425
532 1 40.3487 28.6072 5.99783
533 2 44.1612 28.5315 4.34709
534 3 44.1646 28.5365 7.63585
535 1 43.2215 30.1775 5.99134
536 2 47.0461 30.0949 4.34079
537 3 47.048 30.0986 7.62956
538 1 46.1027 31.7383 5.98501
539 2 49.9379 31.6513 4.33801
540 3 49.9361 31.6522 7.62674
541 1 48.991 33.292 5.98199
542 2 52.8332 33.2047 4.34121
543 3 52.8267 33.2018 7.62985
544 1 51.8837 34.8431 5.98486
545 2 55.7277 34.7596 4.3507
546 3 55.7173 34.7533 7.63921
547 1 54.7775 36.3968 5.99405
548 2 58.6175 36.3204 4.36427
549 3 58.6055 36.3124 7.65264
550 1 57.6691 37.958 6.00743
551 2 61.5003 37.8901 4.37836
552 3 61.4894 37.8826 7.66659
553 1 60.5562 39.5297 6.02138
554 2 64.3757 39.4704 4.38969
555 3 64.3677 39.4652 7.67781
556 1 63.4377 41.1133 6.03255
557 2 67.2448 41.061 4.39647
558 3 67.2402 41.0591 7.68453
559 1 66.3136 42.7081 6.03906
560 2 70.1092 42.6605 4.39849
561 3 70.1076 42.6621 7.68652
562 1 69.1849 44.312 6.04069
563 2 72.9705 44.2666 4.39647
564 3 72.9711 44.2715 7.68453
565 1 72.053 45.9227 6.0382
566 2 75.83 45.877 4.39127
567 3 75.8324 45.8848 7.67937
568 1 74.9194 47.5375 6.03255
569 2 78.689 47.4889 4.38321
570 3 78.6933 47.4995 7.67138
571 1 77.7854 49.1538 6.02423
572 2 81.5484 49.0995 4.37174
573 3 81.5559 49.1131 7.65999
574 1 80.6526 50.769 6.01284
575 2 84.4094 50.7056 4.35521
576 3 84.4222 50.7227 7.64356
577 1 83.5223 52.3801 5.99688
578 2 87.2736 52.3037 4.33114
579 3 87.2943 52.3248 7.61955
580 1 86.3963 53.9833 5.97391
581 2 90.1434 53.89 4.29713
582 3 90.1737 53.9152 7.58552
583 1 89.2761 55.5745 5.94145
584 2 93.0221 55.4614 4.25269
585 3 93.061 55.4891 7.54094
586 1 92.1633 57.1498 5.89884
587 2 95.9125 57.016 4.20126
588 3 95.9556 57.043 7.48928
589 1 95.0587 58.7063 5.84924
590 2 98.8158 58.5548 4.15054
591 3 98.8558 58.5763 7.43843
592 1 97.9619 60.2444 5.80007
593 2 101.73 60.0816 4.1102
594 3 101.759 60.0936 7.39818
595 1 3.057 4.79176 5.76081
596 2 6.85357 4.64501 4.14934
597 3 6.82085 4.61543 7.43726
598 1 5.96127 6.31207 5.79934
599 2 9.75253 6.18007 4.19791
600 3 9.7167 6.1474 7.48603
601 1 8.85618 7.84494 5.84676
602 2 12.6378 7.72992 4.24597
603 3 12.6056 7.69932 7.53444
604 1 11.7398 9.39431 5.89355
605 2 15.5109 9.29611 4.28613
606 3 15.4864 9.27095 7.57487
607 1 14.6123 10.9608 5.93256
608 2 18.3753 10.8776 4.3154
609 3 18.359 10.8588 7.60425
610 1 17.4755 12.5423 5.96096
611 2 21.2343 12.4714 4.3346
612 3 21.2247 12.4581 7.62345
613 1 20.3321 14.1353 5.97959
614 2 24.0905 14.0739 4.34641
615 3 24.0852 14.0649 7.6352
616 1 23.1845 15.7362 5.99103
617 2 26.9456 15.6817 4.3536
618 3 26.9426 15.6756 7.64231
619 1 26.0349 17.3416 5.99796
620 2 29.8009 17.2914 4.3581
621 3 29.799 17.2876 7.64674
622 1 28.885 18.9487 6.00228
623 2 32.6575 18.9002 4.36083
624 3 32.6564 18.8983 7.64942
625 1 31.7364 20.5549 6.00493
626 2 35.5165 20.5055 4.36184
627 3 35.5165 20.5055 7.6504
628 1 34.5907 22.1576 6.00597
629 2 38.3794 22.1045 4.36062
630 3 38.3811 22.1065 7.64921
631 1 37.4494 23.7544 6.00493
632 2 41.2478 23.6951 4.3567
633 3 41.2513 23.6988 7.64535
634 1 40.314 25.3428 6.00125
635 2 44.1231 25.2756 4.35039
636 3 44.1279 25.2803 7.63911
637 1 43.1857 26.9212 5.99516
638 2 47.0062 26.8457 4.34338
639 3 47.0105 26.85 7.63215
640 1 46.0649 28.489 5.98823
641 2 49.8963 28.4069 4.33857
642 3 49.8978 28.4089 7.62734
643 1 48.9511 30.0478 5.9833
644 2 52.7909 29.9623 4.33889
645 3 52.7879 29.9606 7.6276
646 1 51.8422 31.6008 5.98334
647 2 55.6859 31.5161 4.34571
648 3 55.6784 31.5106 7.6343
649 1 54.7352 33.1531 5.98983
650 2 58.577 33.0729 4.35786
651 3 58.5668 33.0649 7.64632
652 1 57.6267 34.7098 6.00176
653 2 61.461 34.6367 4.3722
654 3 61.4509 34.628 7.66052
655 1 60.5138 36.2751 6.01603
656 2 64.3368 36.2099 4.38514
657 3 64.3291 36.2025 7.67333
658 1 63.3948 37.8512 6.02904
659 2 67.2048 37.7934 4.39418
660 3 67.2006 37.7883 7.68227
661 1 66.2693 39.4384 6.0382
662 2 70.0664 39.3861 4.39849
663 3 70.0658 39.3839 7.68652
664 1 69.1379 41.0354 6.04259
665 2 72.9235 40.9863 4.39849
666 3 72.9256 40.9868 7.68652
667 1 72.0018 42.6399 6.04259
668 2 75.7774 42.5914 4.39505
669 3 75.7817 42.5944 7.68312
670 1 74.8625 44.2495 6.03906
671 2 78.6296 44.1989 4.38872
672 3 78.6357 44.2044 7.67687
673 1 77.7215 45.8615 6.03262
674 2 81.4811 45.8059 4.37932
675 3 81.4895 45.8142 7.66754
676 1 80.5803 47.4734 6.0231
677 2 84.3332 47.4095 4.36565
678 3 84.3453 47.4215 7.65397
679 1 83.4405 49.0822 6.00937
680 2 87.1874 49.0063 4.34563
681 3 87.205 49.0232 7.63403
682 1 86.3037 50.6849 5.98925
683 2 90.0462 50.5927 4.31674
684 3 90.0708 50.6158 7.60518
685 1 89.1718 52.2775 5.96011
686 2 92.9127 52.1653 4.27744
687 3 92.9443 52.1949 7.56581
688 1 92.047 53.8561 5.92027
689 2 95.7906 53.7221 4.22908
690 3 95.8264 53.7563 7.51726
691 1 94.9309 55.4174 5.87109
692 2 98.6824 55.2632 4.17728
693 3 98.7168 55.298 7.46524
694 1 97.8247 56.9605 5.81839
695 2 101.588 56.7916 4.13099
696 3 101.614 56.8218 7.4189
697 1 100.728 58.4877 5.77142
698 2 104.504 58.3121 4.09926
699 3 104.515 58.3335 7.38731
700 1 103.637 60.0044 5.73933
701 2 36.3925 59.8293 4.08808
702 3 36.3858 59.8399 7.37622
703 1 71.033 4.614e-12 5.72802
704 2 39.3142 61.3472 4.09926
705 3 39.2901 61.3462 7.38731
706 1 2.91274 1.51208 5.73926
707 2 6.71525 1.35369 4.13049
708 3 6.67806 1.34176 7.41842
709 1 5.82293 3.02908 5.77083
710 2 9.62395 2.88651 4.17522
711 3 9.58135 2.8665 7.46324
712 1 8.72733 4.55694 5.81632
713 2 12.5209 4.43385 4.22397
714 3 12.481 4.41037 7.5123
715 1 11.623 6.10088 5.86621
716 2 15.4061 5.99808 4.26785
717 3 15.3747 5.97546 7.5565
718 1 14.5086 7.6631 5.91136
719 2 18.282 7.5787 4.30171
720 3 18.2608 7.55944 7.59053
721 1 17.3848 9.24234 5.94636
722 2 21.1515 9.17308 4.32487
723 3 21.1393 9.15778 7.61373
724 1 20.2531 10.8352 5.97036
725 2 24.0171 10.7776 4.3395
726 3 24.0112 10.7657 7.62833
727 1 23.1159 12.4378 5.98547
728 2 26.8806 12.3883 4.34857
729 3 26.8782 12.3793 7.63732
730 1 25.975 14.0463 5.99466
731 2 29.7432 14.0021 4.35442
732 3 29.7425 13.9953 7.6431
733 1 28.8325 15.6576 6.00037
734 2 32.606 15.6157 4.35835
735 3 32.606 15.6111 7.64697
736 1 31.6898 17.2689 6.00401
737 2 35.4699 17.2266 4.36062
738 3 35.4708 17.2242 7.64921
739 1 34.5486 18.8776 6.00597
740 2 38.3362 18.8321 4.36083
741 3 38.3384 18.8321 7.64942
742 1 37.4102 20.4812 6.00597
743 2 41.2064 20.4297 4.35835
744 3 41.2104 20.4321 7.64697
745 1 40.2763 22.0771 6.00342
746 2 44.0821 22.0176 4.35302
747 3 44.0878 22.0217 7.64171
748 1 43.1482 23.6632 5.99814
749 2 46.9645 23.5945 4.34594
750 3 46.9706 23.599 7.63469
751 1 46.0267 25.2382 5.99113
752 2 49.8537 25.161 4.3396
753 3 49.8581 25.164 7.62837
754 1 48.9117 26.8025 5.9848
755 2 52.748 26.7193 4.33716
756 3 52.7485 26.7191 7.62591
757 1 51.8019 28.3586 5.98224
758 2 55.6438 28.273 4.34093
759 3 55.6397 28.2687 7.62959
760 1 54.6947 29.9106 5.98579
761 2 58.5369 29.8268 4.3509
762 3 58.5292 29.8191 7.63944
763 1 57.5868 31.4637 5.99556
764 2 61.4232 31.385 4.36461
765 3 61.4145 31.3756 7.65301
766 1 60.4748 33.0229 6.00923
767 2 64.3007 32.9511 4.37837
768 3 64.2937 32.9419 7.66664
769 1 63.3566 34.5914 6.02316
770 2 67.1691 34.5267 4.38903
771 3 67.1656 34.5192 7.67718
772 1 66.231 36.1706 6.03419
773 2 70.0295 36.1119 4.39505
774 3 70.03 36.1067 7.68312
775 1 69.0982 37.7599 6.04069
776 2 72.8838 37.7052 4.39647
777 3 72.8877 37.7022 7.68453
778 1 71.9594 39.3575 6.04259
779 2 75.7337 39.3044 4.39418
780 3 75.74 39.3033 7.68227
781 1 74.8159 40.9609 6.04069
782 2 78.5805 40.9067 4.38903
783 3 78.5887 40.9075 7.67718
784 1 77.6692 42.5676 6.03577
785 2 81.4256 42.5097 4.38127
786 3 81.4355 42.5126 7.6695
787 1 80.5209 44.1751 6.02806
788 2 84.2702 44.1102 4.3703
789 3 84.2823 44.1162 7.65862
790 1 83.3725 45.7808 6.01686
791 2 87.1159 45.7054 4.35466
792 3 87.1312 45.716 7.64307
793 1 86.2257 47.3817 6.00055
794 2 89.9648 47.2918 4.33223
795 3 89.9843 47.3089 7.62072
796 1 89.0825 48.9745 5.97676
797 2 92.8199 48.8661 4.30104
798 3 92.8439 48.8915 7.58954
799 1 91.9451 50.5556 5.94331
800 2 95.6849 50.4258 4.26068
801 3 95.7119 50.4599 7.54908
802 1 94.816 52.1217 5.89984
803 2 98.5633 51.9704 4.21402
804 3 98.5897 52.0109 7.50219
805 1 97.6975 53.6707 5.84968
806 2 101.457 53.5018 4.16771
807 3 101.477 53.5438 7.45568
808 1 100.59 55.2035 5.80024
809 2 33.3312 55.024 4.13049
810 3 33.3395 55.0622 7.41842
811 1 103.493 56.7241 5.76087
812 2 36.2479 56.5419 4.10997
813 3 36.2402 56.5718 7.39795
814 1 8.58864 1.27398 5.79945
815 2 12.3929 1.14219 4.21211
816 3 12.3474 1.13098 7.50034
817 1 11.4934 2.81359 5.84677
818 2 15.2885 2.70433 4.25505
819 3 15.251 2.68957 7.5436
820 1 14.3903 4.37162 5.89319
821 2 18.175 4.28362 4.29005
822 3 18.1488 4.26858 7.57881
823 1 17.2787 5.94798 5.93151
824 2 21.0547 5.87784 4.31494
825 3 21.0393 5.86421 7.60377
826 1 20.1592 7.5398 5.95907
827 2 23.93 7.48343 4.33105
828 3 23.9226 7.47161 7.61988
829 1 23.0331 9.14305 5.977
830 2 26.8025 9.09653 4.34122
831 3 26.7999 9.08635 7.63001
832 1 25.9023 10.7537 5.98815
833 2 29.6733 10.7135 4.34801
834 3 29.673 10.7049 7.63675
835 1 28.7684 12.3682 5.99526
836 2 32.5432 12.3314 4.35302
837 3 32.544 12.3244 7.64171
838 1 31.633 13.9837 6.00013
839 2 35.4132 13.9472 4.3567
840 3 35.4146 13.9423 7.64535
841 1 34.4976 15.5975 6.00342
842 2 38.2843 15.5585 4.35866
843 3 38.2868 15.5561 7.64729
844 1 37.3637 17.2071 6.00493
845 2 41.1578 17.1626 4.3581
846 3 41.162 17.1629 7.64674
847 1 40.2328 18.8098 6.00401
848 2 44.0353 18.7574 4.35442
849 3 44.0415 18.7601 7.6431
850 1 43.1062 20.4031 6.00013
851 2 46.9182 20.341 4.34801
852 3 46.9258 20.3451 7.63675
853 1 45.9852 21.9853 5.99371
854 2 49.8072 21.9133 4.34079
855 3 49.8144 21.9168 7.62956
856 1 48.8701 23.5557 5.98657
857 2 52.7017 23.4753 4.33587
858 3 52.7061 23.4761 7.62464
859 1 51.7601 25.1157 5.98173
860 2 55.5987 25.0301 4.33629
861 3 55.5988 25.0267 7.62501
862 1 54.6533 26.6685 5.98217
863 2 58.4942 26.5818 4.34333
864 3 58.4901 26.5741 7.63194
865 1 57.5465 28.2191 5.98915
866 2 61.3838 28.1351 4.35552
867 3 61.3775 28.1246 7.644
868 1 60.4364 29.7728 6.00133
869 2 64.2643 29.694 4.36941
870 3 64.2587 29.6828 7.65776
871 1 63.32 31.3338 6.0154
872 2 67.1347 31.2614 4.38127
873 3 67.1322 31.2513 7.6695
874 1 66.1956 32.9046 6.02768
875 2 69.9956 32.8381 4.38872
876 3 69.9973 32.8301 7.67687
877 1 69.063 34.4855 6.03577
878 2 72.8486 34.4236 4.39127
879 3 72.8543 34.4176 7.67937
880 1 71.9229 36.0752 6.03906
881 2 75.6959 36.0158 4.38969
882 3 75.7043 36.0115 7.67781
883 1 74.7767 37.6717 6.0382
884 2 78.5389 37.6123 4.38514
885 3 78.5492 37.6094 7.67333
886 1 77.6259 39.2724 6.03419
887 2 81.3792 39.2105 4.37837
888 3 81.3907 39.209 7.66664
889 1 80.472 40.8748 6.02768
890 2 84.2181 40.8075 4.36941
891 3 84.2306 40.8083 7.65776
892 1 83.3167 42.4765 6.01854
893 2 87.0571 42.4007 4.35751
894 3 87.0708 42.4051 7.64595
895 1 86.1615 44.0747 6.00583
896 2 89.8982 43.987 4.34126
897 3 89.9134 43.9971 7.62978
898 1 89.0084 45.6668 5.9878
899 2 92.7438 45.5633 4.31888
900 3 92.7608 45.5814 7.60746
901 1 91.8595 47.2495 5.96239
902 2 95.5973 47.1269 4.28905
903 3 95.6156 47.155 7.57764
904 1 94.7177 48.8197 5.92821
905 2 98.4625 48.6765 4.25227
906 3 98.4799 48.7144 7.54073
907 1 97.5858 50.375 5.88615
908 2 30.3092 50.2127 4.21211
909 3 30.3222 50.2577 7.50034
910 1 100.466 51.9149 5.84067
911 2 33.2043 51.7386 4.17522
912 3 33.2083 51.7855 7.46324
913 1 14.2621 1.08654 5.88368
914 2 18.0582 0.993375 4.28501
915 3 18.0276 0.986335 7.57368
916 1 17.1606 2.65962 5.92135
917 2 20.9468 2.58624 4.30895
918 3 20.9277 2.57816 7.59772
919 1 20.0518 4.24944 5.9496
920 2 23.8307 4.19174 4.32455
921 3 23.8209 4.18352 7.61334
922 1 22.9365 5.85224 5.96845
923 2 26.7116 5.80603 4.33427
924 3 26.7078 5.79788 7.62306
925 1 25.8158 7.46388 5.98034
926 2 29.5903 7.42543 4.34079
927 3 29.5898 7.41744 7.62956
928 1 28.691 9.08065 5.98807
929 2 32.4677 9.04667 4.34594
930 3 32.4686 9.03913 7.63469
931 1 31.5638 10.6994 5.99371
932 2 35.3443 10.6669 4.35039
933 3 35.346 10.6604 7.63911
934 1 34.4353 12.3174 5.99814
935 2 38.221 12.2833 4.35381
936 3 38.2237 12.2787 7.6425
937 1 37.3071 13.932 6.00125
938 2 41.0989 13.8935 4.35522
939 3 41.1033 13.8912 7.64392
940 1 40.1804 15.5408 6.00228
941 2 43.9795 15.4948 4.3536
942 3 43.9862 15.4952 7.64231
943 1 43.0569 17.1409 6.00037
944 2 46.8641 17.0851 4.34857
945 3 46.8732 17.0876 7.63732
946 1 45.9376 18.73 5.99526
947 2 49.7539 18.6634 4.34122
948 3 49.7641 18.6662 7.63001
949 1 48.8234 20.3068 5.98807
950 2 52.649 20.2299 4.33427
951 3 52.658 20.2307 7.62306
952 1 51.7142 21.8715 5.98144
953 2 55.5476 21.7867 4.33121
954 3 55.5531 21.7835 7.61996
955 1 54.6084 23.4262 5.9787
956 2 58.446 23.3375 4.33456
957 3 58.447 23.3292 7.62323
958 1 57.5034 24.9754 5.98227
959 2 61.3397 24.8866 4.34425
960 3 61.3373 24.8744 7.63281
961 1 60.3957 26.5244 5.99208
962 2 64.2246 26.4387 4.35751
963 3 64.2215 26.4247 7.64595
964 1 63.2822 28.0781 6.00547
965 2 67.0985 27.9976 4.3703
966 3 67.0976 27.9841 7.65862
967 1 66.1604 29.6402 6.01854
968 2 69.9615 29.5651 4.37932
969 3 69.9645 29.5537 7.66754
970 1 69.0293 31.2121 6.02806
971 2 72.8151 31.1417 4.38321
972 3 72.8221 31.1326 7.67138
973 1 71.8895 32.7932 6.03262
974 2 75.6613 32.726 4.38244
975 3 75.6714 32.7189 7.67062
976 1 74.742 34.382 6.03255
977 2 78.5021 34.3157 4.37836
978 3 78.514 34.3101 7.66659
979 1 77.5885 35.976 6.02904
980 2 81.3392 35.9084 4.3722
981 3 81.3518 35.904 7.66052
982 1 80.4307 37.5727 6.02316
983 2 84.1742 37.5015 4.36461
984 3 84.1868 37.4987 7.65301
985 1 83.2702 39.1698 6.0154
986 2 87.0085 39.0924 4.35552
987 3 87.0207 39.0922 7.644
988 1 86.1086 40.7649 6.00547
989 2 89.8438 40.6784 4.34425
990 3 89.8555 40.6825 7.63281
991 1 88.9477 42.3556 5.99242
992 2 92.6823 42.2568 4.3296
993 3 92.6936 42.2674 7.61823
994 1 91.7895 43.9391 5.97474
995 2 95.5268 43.8249 4.31015
996 3 95.5374 43.8445 7.59883
997 1 94.6368 45.5128 5.95082
998 2 27.3477 45.3808 4.28501
999 3 27.3569 45.4108 7.57368
1000 1 97.4925 47.0742 5.91994
1001 2 30.2143 46.924 4.25505
1002 3 30.2202 46.9639 7.5436
1003 1 19.9353 0.96444 5.94613