ITEM: TIMESTEP
0
ITEM: NUMBER OF ATOMS
2814
ITEM: BOX BOUNDS xy xz yz pp pp pp
0.0000000000000000e+00 1.0654952651382115e+02 3.5516508838594895e+01
0.0000000000000000e+00 6.1516397814722886e+01 0.0000000000000000e+00
0.0000000000000000e+00 3.5000000000000000e+01 0.0000000000000000e+00
ITEM: ATOMS id type x y z
595 1 2.9534 4.85311 5.88952
596 2 6.73981 4.76566 4.34441
597 3 6.73981 4.76566 7.43464
598 1 5.83107 6.42709 5.88952
703 1 0 0 5.88952
706 1 2.87767 1.57398 5.88952
707 2 6.66408 1.48654 4.34441
708 3 6.66408 1.48654 7.43464
709 1 5.75534 3.14796 5.88952
1394 2 3.93786 6.47081 4.34441
1395 3 3.93786 6.47081 7.43464
1403 2 0.984466 1.6177 4.34441
1404 3 0.984466 1.6177 7.43464
1406 2 3.86214 3.19168 4.34441
1407 3 3.86214 3.19168 7.43464
599 2 9.61748 6.33964 4.34441
600 3 9.61748 6.33964 7.43464
710 2 9.54175 3.06052 4.34441
711 3 9.54175 3.06052 7.43464
712 1 8.63301 4.72194 5.88952
713 2 12.4194 4.6345 4.34441
714 3 12.4194 4.6345 7.43464
715 1 11.5107 6.29592 5.88952
814 1 8.55728 1.44282 5.88952
815 2 12.3437 1.35537 4.34441
816 3 12.3437 1.35537 7.43464
817 1 11.435 3.0168 5.88952
818 2 15.2214 2.92935 4.34441
819 3 15.2214 2.92935 7.43464
820 1 14.3126 4.59078 5.88952
913 1 14.2369 1.31165 5.88952
716 2 15.2971 6.20848 4.34441
717 3 15.2971 6.20848 7.43464
821 2 18.099 4.50333 4.34441
822 3 18.099 4.50333 7.43464
823 1 17.1903 6.16476 5.88952
824 2 20.9767 6.07731 4.34441
825 3 20.9767 6.07731 7.43464
914 2 18.0233 1.22421 4.34441
915 3 18.0233 1.22421 7.43464
916 1 17.1146 2.88563 5.88952
917 2 20.901 2.79819 4.34441
918 3 20.901 2.79819 7.43464
919 1 19.9922 4.45961 5.88952
1003 1 19.9165 1.18049 5.88952
1006 1 22.7942 2.75447 5.88952
827 2 23.8544 7.65129 4.34441
828 3 23.8544 7.65129 7.43464
920 2 23.7786 4.37217 4.34441
921 3 23.7786 4.37217 7.43464
922 1 22.8699 6.03359 5.88952
923 2 26.6563 5.94615 4.34441
924 3 26.6563 5.94615 7.43464
925 1 25.7476 7.60757 5.88952
926 2 29.534 7.52013 4.34441
927 3 29.534 7.52013 7.43464
1004 2 23.7029 1.09304 4.34441
1005 3 23.7029 1.09304 7.43464
1007 2 26.5806 2.66702 4.34441
1008 3 26.5806 2.66702 7.43464
1009 1 25.6718 4.32845 5.88952
1010 2 29.4583 4.241 4.34441
1011 3 29.4583 4.241 7.43464
1012 1 28.5495 5.90243 5.88952
1084 1 25.5961 1.04932 5.88952
1085 2 29.3825 0.961877 4.34441
1086 3 29.3825 0.961877 7.43464
1087 1 28.4738 2.6233 5.88952
1013 2 32.3359 5.81498 4.34441
1014 3 32.3359 5.81498 7.43464
1015 1 31.4272 7.47641 5.88952
1016 2 35.2136 7.38896 4.34441
1017 3 35.2136 7.38896 7.43464
1088 2 32.2602 2.53586 4.34441
1089 3 32.2602 2.53586 7.43464
1090 1 31.3515 4.19728 5.88952
1091 2 35.1379 4.10984 4.34441
1092 3 35.1379 4.10984 7.43464
1093 1 34.2291 5.77126 5.88952
1094 2 38.0155 5.68382 4.34441
1095 3 38.0155 5.68382 7.43464
1096 1 37.1068 7.34524 5.88952
1156 1 31.2757 0.918155 5.88952
1157 2 35.0621 0.830712 4.34441
1158 3 35.0621 0.830712 7.43464
1159 1 34.1534 2.49214 5.88952
1160 2 37.9398 2.40469 4.34441
1161 3 37.9398 2.40469 7.43464
1162 1 37.0311 4.06612 5.88952
1219 1 36.9553 0.78699 5.88952
1097 2 40.8932 7.2578 4.34441
1098 3 40.8932 7.2578 7.43464
1163 2 40.8175 3.97867 4.34441
1164 3 40.8175 3.97867 7.43464
1165 1 39.9087 5.6401 5.88952
1166 2 43.6952 5.55265 4.34441
1167 3 43.6952 5.55265 7.43464
1168 1 42.7864 7.21408 5.88952
1220 2 40.7418 0.699547 4.34441
1221 3 40.7418 0.699547 7.43464
1222 1 39.833 2.36097 5.88952
1223 2 43.6194 2.27353 4.34441
1224 3 43.6194 2.27353 7.43464
1225 1 42.7107 3.93495 5.88952
1228 1 45.5884 5.50893 5.88952
1273 1 42.635 0.655825 5.88952
1276 1 45.5126 2.22981 5.88952
1169 2 46.5728 7.12663 4.34441
1170 3 46.5728 7.12663 7.43464
1226 2 46.4971 3.84751 4.34441
1227 3 46.4971 3.84751 7.43464
1229 2 49.3748 5.42149 4.34441
1230 3 49.3748 5.42149 7.43464
1231 1 48.466 7.08291 5.88952
1232 2 52.2524 6.99547 4.34441
1233 3 52.2524 6.99547 7.43464
1274 2 46.4214 0.568382 4.34441
1275 3 46.4214 0.568382 7.43464
1277 2 49.299 2.14236 4.34441
1278 3 49.299 2.14236 7.43464
1279 1 48.3903 3.80379 5.88952
1280 2 52.1767 3.71634 4.34441
1281 3 52.1767 3.71634 7.43464
1282 1 51.268 5.37777 5.88952
1318 1 48.3146 0.52466 5.88952
1319 2 52.101 0.437217 4.34441
1320 3 52.101 0.437217 7.43464
1321 1 51.1922 2.09864 5.88952
1283 2 55.0544 5.29032 4.34441
1284 3 55.0544 5.29032 7.43464
1285 1 54.1456 6.95175 5.88952
1286 2 57.932 6.8643 4.34441
1287 3 57.932 6.8643 7.43464
1322 2 54.9786 2.0112 4.34441
1323 3 54.9786 2.0112 7.43464
1324 1 54.0699 3.67262 5.88952
1325 2 57.8563 3.58518 4.34441
1326 3 57.8563 3.58518 7.43464
1327 1 56.9476 5.2466 5.88952
1328 2 60.734 5.15916 4.34441
1329 3 60.734 5.15916 7.43464
1330 1 59.8252 6.82058 5.88952
1354 1 53.9942 0.393495 5.88952
1355 2 57.7806 0.306052 4.34441
1356 3 57.7806 0.306052 7.43464
1357 1 56.8719 1.96748 5.88952
1358 2 60.6583 1.88003 4.34441
1359 3 60.6583 1.88003 7.43464
1360 1 59.7495 3.54146 5.88952
1381 1 59.6738 0.26233 5.88952
1331 2 63.6117 6.73314 4.34441
1332 3 63.6117 6.73314 7.43464
1361 2 63.5359 3.45401 4.34441
1362 3 63.5359 3.45401 7.43464
1363 1 62.6272 5.11544 5.88952
1364 2 66.4136 5.02799 4.34441
1365 3 66.4136 5.02799 7.43464
1366 1 65.5049 6.68942 5.88952
1382 2 63.4602 0.174887 4.34441
1383 3 63.4602 0.174887 7.43464
1384 1 62.5515 1.83631 5.88952
1385 2 66.3379 1.74887 4.34441
1386 3 66.3379 1.74887 7.43464
1387 1 65.4291 3.41029 5.88952
1390 1 68.3068 4.98427 5.88952
1399 1 65.3534 0.131165 5.88952
1402 1 68.2311 1.70515 5.88952
1367 2 69.2913 6.60197 4.34441
1368 3 69.2913 6.60197 7.43464
1388 2 69.2155 3.32285 4.34441
1389 3 69.2155 3.32285 7.43464
1391 2 72.0932 4.89683 4.34441
1392 3 72.0932 4.89683 7.43464
1393 1 71.1845 6.55825 5.88952
1400 2 69.1398 0.0437217 4.34441
1401 3 69.1398 0.0437217 7.43464
1405 1 71.1087 3.27913 5.88952
496 1 5.9068 9.70621 5.88952
1376 2 6.89126 11.3239 4.34441
1377 3 6.89126 11.3239 7.43464
1397 2 6.81553 8.04479 4.34441
1398 3 6.81553 8.04479 7.43464
406 1 8.8602 14.5593 5.88952
407 2 12.6466 14.4719 4.34441
408 3 12.6466 14.4719 7.43464
497 2 9.6932 9.61877 4.34441
498 3 9.6932 9.61877 7.43464
499 1 8.78447 11.2802 5.88952
500 2 12.5709 11.1927 4.34441
501 3 12.5709 11.1927 7.43464
502 1 11.6621 12.8542 5.88952
505 1 14.5398 14.4282 5.88952
601 1 8.70874 8.00107 5.88952
602 2 12.4951 7.91362 4.34441
603 3 12.4951 7.91362 7.43464
604 1 11.5864 9.57505 5.88952
607 1 14.4641 11.149 5.88952
718 1 14.3884 7.8699 5.88952
1379 2 9.76893 12.8979 4.34441
1380 3 9.76893 12.8979 7.43464
503 2 15.4485 12.7667 4.34441
504 3 15.4485 12.7667 7.43464
506 2 18.3262 14.3407 4.34441
507 3 18.3262 14.3407 7.43464
605 2 15.3728 9.4876 4.34441
606 3 15.3728 9.4876 7.43464
608 2 18.2505 11.0616 4.34441
609 3 18.2505 11.0616 7.43464
610 1 17.3417 12.723 5.88952
611 2 21.1282 12.6356 4.34441
612 3 21.1282 12.6356 7.43464
613 1 20.2194 14.297 5.88952
719 2 18.1748 7.78246 4.34441
720 3 18.1748 7.78246 7.43464
721 1 17.266 9.44388 5.88952
722 2 21.0524 9.35644 4.34441
723 3 21.0524 9.35644 7.43464
724 1 20.1437 11.0179 5.88952
826 1 20.068 7.73874 5.88952
614 2 24.0058 14.2095 4.34441
615 3 24.0058 14.2095 7.43464
725 2 23.9301 10.9304 4.34441
726 3 23.9301 10.9304 7.43464
727 1 23.0214 12.5918 5.88952
728 2 26.8078 12.5044 4.34441
729 3 26.8078 12.5044 7.43464
730 1 25.899 14.1658 5.88952
731 2 29.6854 14.0784 4.34441
732 3 29.6854 14.0784 7.43464
829 1 22.9456 9.31272 5.88952
830 2 26.732 9.22527 4.34441
831 3 26.732 9.22527 7.43464
832 1 25.8233 10.8867 5.88952
833 2 29.6097 10.7993 4.34441
834 3 29.6097 10.7993 7.43464
835 1 28.701 12.4607 5.88952
928 1 28.6252 9.18155 5.88952
836 2 32.4874 12.3732 4.34441
837 3 32.4874 12.3732 7.43464
838 1 31.5786 14.0347 5.88952
839 2 35.3651 13.9472 4.34441
840 3 35.3651 13.9472 7.43464
929 2 32.4117 9.09411 4.34441
930 3 32.4117 9.09411 7.43464
931 1 31.5029 10.7555 5.88952
932 2 35.2893 10.6681 4.34441
933 3 35.2893 10.6681 7.43464
934 1 34.3806 12.3295 5.88952
937 1 37.2583 13.9035 5.88952
1018 1 34.3049 9.05039 5.88952
1021 1 37.1825 10.6244 5.88952
935 2 38.167 12.2421 4.34441
936 3 38.167 12.2421 7.43464
938 2 41.0447 13.816 4.34441
939 3 41.0447 13.816 7.43464
1019 2 38.0913 8.96294 4.34441
1020 3 38.0913 8.96294 7.43464
1022 2 40.9689 10.5369 4.34441
1023 3 40.9689 10.5369 7.43464
1024 1 40.0602 12.1983 5.88952
1025 2 43.8466 12.1109 4.34441
1026 3 43.8466 12.1109 7.43464
1027 1 42.9379 13.7723 5.88952
1099 1 39.9845 8.91922 5.88952
1100 2 43.7709 8.83178 4.34441
1101 3 43.7709 8.83178 7.43464
1102 1 42.8621 10.4932 5.88952
1171 1 45.6641 8.78806 5.88952
1028 2 46.7243 13.6849 4.34441
1029 3 46.7243 13.6849 7.43464
1030 1 45.8155 15.3463 5.88952
1031 2 49.6019 15.2589 4.34441
1032 3 49.6019 15.2589 7.43464
1103 2 46.6485 10.4058 4.34441
1104 3 46.6485 10.4058 7.43464
1105 1 45.7398 12.0672 5.88952
1106 2 49.5262 11.9797 4.34441
1107 3 49.5262 11.9797 7.43464
1108 1 48.6175 13.6412 5.88952
1109 2 52.4039 13.5537 4.34441
1110 3 52.4039 13.5537 7.43464
1111 1 51.4952 15.2151 5.88952
1172 2 49.4505 8.70061 4.34441
1173 3 49.4505 8.70061 7.43464
1174 1 48.5418 10.362 5.88952
1175 2 52.3282 10.2746 4.34441
1176 3 52.3282 10.2746 7.43464
1177 1 51.4194 11.936 5.88952
1234 1 51.3437 8.65689 5.88952
1112 2 55.2816 15.1277 4.34441
1113 3 55.2816 15.1277 7.43464
1178 2 55.2058 11.8486 4.34441
1179 3 55.2058 11.8486 7.43464
1180 1 54.2971 13.51 5.88952
1181 2 58.0835 13.4226 4.34441
1182 3 58.0835 13.4226 7.43464
1183 1 57.1748 15.084 5.88952
1235 2 55.1301 8.56945 4.34441
1236 3 55.1301 8.56945 7.43464
1237 1 54.2214 10.2309 5.88952
1238 2 58.0078 10.1434 4.34441
1239 3 58.0078 10.1434 7.43464
1240 1 57.099 11.8049 5.88952
1241 2 60.8854 11.7174 4.34441
1242 3 60.8854 11.7174 7.43464
1243 1 59.9767 13.3788 5.88952
1288 1 57.0233 8.52573 5.88952
1289 2 60.8097 8.43828 4.34441
1290 3 60.8097 8.43828 7.43464
1291 1 59.901 10.0997 5.88952
1184 2 60.9612 14.9965 4.34441
1185 3 60.9612 14.9965 7.43464
1244 2 63.7631 13.2914 4.34441
1245 3 63.7631 13.2914 7.43464
1246 1 62.8544 14.9528 5.88952
1247 2 66.6408 14.8654 4.34441
1248 3 66.6408 14.8654 7.43464
1292 2 63.6874 10.0123 4.34441
1293 3 63.6874 10.0123 7.43464
1294 1 62.7786 11.6737 5.88952
1295 2 66.5651 11.5862 4.34441
1296 3 66.5651 11.5862 7.43464
1297 1 65.6563 13.2477 5.88952
1333 1 62.7029 8.39456 5.88952
1334 2 66.4893 8.30712 4.34441
1335 3 66.4893 8.30712 7.43464
1336 1 65.5806 9.96854 5.88952
1339 1 68.4583 11.5425 5.88952
1369 1 68.3825 8.2634 5.88952
1298 2 69.4427 13.1602 4.34441
1299 3 69.4427 13.1602 7.43464
1300 1 68.534 14.8216 5.88952
1301 2 72.3204 14.7342 4.34441
1302 3 72.3204 14.7342 7.43464
1337 2 69.367 9.8811 4.34441
1338 3 69.367 9.8811 7.43464
1340 2 72.2447 11.4551 4.34441
1341 3 72.2447 11.4551 7.43464
1342 1 71.3359 13.1165 5.88952
1343 2 75.1223 13.0291 4.34441
1344 3 75.1223 13.0291 7.43464
1345 1 74.2136 14.6905 5.88952
1370 2 72.1689 8.17595 4.34441
1371 3 72.1689 8.17595 7.43464
1372 1 71.2602 9.83738 5.88952
1373 2 75.0466 9.74993 4.34441
1374 3 75.0466 9.74993 7.43464
1375 1 74.1379 11.4114 5.88952
1396 1 74.0621 8.13223 5.88952
1346 2 78 14.603 4.34441
1347 3 78 14.603 7.43464
1378 1 77.0155 12.9853 5.88952
325 1 11.8136 19.4124 5.88952
328 1 14.6913 20.9864 5.88952
409 1 11.7379 16.1333 5.88952
412 1 14.6155 17.7073 5.88952
1313 2 12.7981 21.0301 4.34441
1314 3 12.7981 21.0301 7.43464
1349 2 9.84466 16.177 4.34441
1350 3 9.84466 16.177 7.43464
1352 2 12.7223 17.751 4.34441
1353 3 12.7223 17.751 7.43464
326 2 15.6 19.325 4.34441
327 3 15.6 19.325 7.43464
329 2 18.4777 20.899 4.34441
330 3 18.4777 20.899 7.43464
331 1 17.5689 22.5604 5.88952
332 2 21.3553 22.4729 4.34441
333 3 21.3553 22.4729 7.43464
410 2 15.5243 16.0459 4.34441
411 3 15.5243 16.0459 7.43464
413 2 18.4019 17.6198 4.34441
414 3 18.4019 17.6198 7.43464
415 1 17.4932 19.2813 5.88952
416 2 21.2796 19.1938 4.34441
417 3 21.2796 19.1938 7.43464
418 1 20.3709 20.8552 5.88952
508 1 17.4175 16.0021 5.88952
509 2 21.2039 15.9147 4.34441
510 3 21.2039 15.9147 7.43464
511 1 20.2951 17.5761 5.88952
1316 2 15.6757 22.6041 4.34441
1317 3 15.6757 22.6041 7.43464
419 2 24.1573 20.7678 4.34441
420 3 24.1573 20.7678 7.43464
421 1 23.2485 22.4292 5.88952
422 2 27.035 22.3418 4.34441
423 3 27.035 22.3418 7.43464
512 2 24.0816 17.4887 4.34441
513 3 24.0816 17.4887 7.43464
514 1 23.1728 19.1501 5.88952
515 2 26.9592 19.0627 4.34441
516 3 26.9592 19.0627 7.43464
517 1 26.0505 20.7241 5.88952
518 2 29.8369 20.6366 4.34441
519 3 29.8369 20.6366 7.43464
520 1 28.9282 22.2981 5.88952
616 1 23.0971 15.871 5.88952
617 2 26.8835 15.7835 4.34441
618 3 26.8835 15.7835 7.43464
619 1 25.9748 17.4449 5.88952
620 2 29.7612 17.3575 4.34441
621 3 29.7612 17.3575 7.43464
622 1 28.8524 19.0189 5.88952
733 1 28.7767 15.7398 5.88952
521 2 32.7146 22.2106 4.34441
522 3 32.7146 22.2106 7.43464
623 2 32.6388 18.9315 4.34441
624 3 32.6388 18.9315 7.43464
625 1 31.7301 20.5929 5.88952
626 2 35.5165 20.5055 4.34441
627 3 35.5165 20.5055 7.43464
628 1 34.6078 22.1669 5.88952
734 2 32.5631 15.6524 4.34441
735 3 32.5631 15.6524 7.43464
736 1 31.6544 17.3138 5.88952
737 2 35.4408 17.2263 4.34441
738 3 35.4408 17.2263 7.43464
739 1 34.532 18.8878 5.88952
742 1 37.4097 20.4617 5.88952
841 1 34.4563 15.6086 5.88952
844 1 37.334 17.1826 5.88952
629 2 38.3942 22.0794 4.34441
630 3 38.3942 22.0794 7.43464
740 2 38.3185 18.8003 4.34441
741 3 38.3185 18.8003 7.43464
743 2 41.1961 20.3743 4.34441
744 3 41.1961 20.3743 7.43464
745 1 40.2874 22.0357 5.88952
746 2 44.0738 21.9483 4.34441
747 3 44.0738 21.9483 7.43464
842 2 38.2427 15.5212 4.34441
843 3 38.2427 15.5212 7.43464
845 2 41.1204 17.0952 4.34441
846 3 41.1204 17.0952 7.43464
847 1 40.2117 18.7566 5.88952
848 2 43.9981 18.6692 4.34441
849 3 43.9981 18.6692 7.43464
850 1 43.0893 20.3306 5.88952
940 1 40.1359 15.4775 5.88952
941 2 43.9223 15.39 4.34441
942 3 43.9223 15.39 7.43464
943 1 43.0136 17.0515 5.88952
851 2 46.8757 20.2431 4.34441
852 3 46.8757 20.2431 7.43464
853 1 45.967 21.9046 5.88952
854 2 49.7534 21.8171 4.34441
855 3 49.7534 21.8171 7.43464
944 2 46.8 16.964 4.34441
945 3 46.8 16.964 7.43464
946 1 45.8913 18.6254 5.88952
947 2 49.6777 18.538 4.34441
948 3 49.6777 18.538 7.43464
949 1 48.7689 20.1994 5.88952
950 2 52.5553 20.112 4.34441
951 3 52.5553 20.112 7.43464
952 1 51.6466 21.7734 5.88952
1033 1 48.6932 16.9203 5.88952
1034 2 52.4796 16.8328 4.34441
1035 3 52.4796 16.8328 7.43464
1036 1 51.5709 18.4943 5.88952
953 2 55.433 21.686 4.34441
954 3 55.433 21.686 7.43464
1037 2 55.3573 18.4068 4.34441
1038 3 55.3573 18.4068 7.43464
1039 1 54.4485 20.0682 5.88952
1040 2 58.235 19.9808 4.34441
1041 3 58.235 19.9808 7.43464
1042 1 57.3262 21.6422 5.88952
1114 1 54.3728 16.7891 5.88952
1115 2 58.1592 16.7017 4.34441
1116 3 58.1592 16.7017 7.43464
1117 1 57.2505 18.3631 5.88952
1120 1 60.1282 19.9371 5.88952
1186 1 60.0524 16.658 5.88952
1043 2 61.1126 21.5548 4.34441
1044 3 61.1126 21.5548 7.43464
1118 2 61.0369 18.2757 4.34441
1119 3 61.0369 18.2757 7.43464
1121 2 63.9146 19.8496 4.34441
1122 3 63.9146 19.8496 7.43464
1123 1 63.0058 21.5111 5.88952
1124 2 66.7922 21.4236 4.34441
1125 3 66.7922 21.4236 7.43464
1187 2 63.8388 16.5705 4.34441
1188 3 63.8388 16.5705 7.43464
1189 1 62.9301 18.2319 5.88952
1190 2 66.7165 18.1445 4.34441
1191 3 66.7165 18.1445 7.43464
1192 1 65.8078 19.8059 5.88952
1249 1 65.732 16.5268 5.88952
1127 2 69.6699 22.9976 4.34441
1128 3 69.6699 22.9976 7.43464
1193 2 69.5942 19.7185 4.34441
1194 3 69.5942 19.7185 7.43464
1195 1 68.6854 21.3799 5.88952
1196 2 72.4719 21.2925 4.34441
1197 3 72.4719 21.2925 7.43464
1198 1 71.5631 22.9539 5.88952
1199 2 75.3495 22.8664 4.34441
1200 3 75.3495 22.8664 7.43464
1250 2 69.5185 16.4394 4.34441
1251 3 69.5185 16.4394 7.43464
1252 1 68.6097 18.1008 5.88952
1253 2 72.3961 18.0133 4.34441
1254 3 72.3961 18.0133 7.43464
1255 1 71.4874 19.6748 5.88952
1256 2 75.2738 19.5873 4.34441
1257 3 75.2738 19.5873 7.43464
1258 1 74.3651 21.2487 5.88952
1303 1 71.4117 16.3956 5.88952
1304 2 75.1981 16.3082 4.34441
1305 3 75.1981 16.3082 7.43464
1306 1 74.2893 17.9696 5.88952
1259 2 78.1515 21.1613 4.34441
1260 3 78.1515 21.1613 7.43464
1261 1 77.2427 22.8227 5.88952
1262 2 81.0291 22.7353 4.34441
1263 3 81.0291 22.7353 7.43464
1307 2 78.0757 17.8822 4.34441
1308 3 78.0757 17.8822 7.43464
1309 1 77.167 19.5436 5.88952
1310 2 80.9534 19.4561 4.34441
1311 3 80.9534 19.4561 7.43464
1312 1 80.0447 21.1176 5.88952
1315 1 82.9223 22.6915 5.88952
1348 1 77.0913 16.2645 5.88952
1351 1 79.9689 17.8384 5.88952
253 1 14.767 24.2655 5.88952
190 1 17.7204 29.1186 5.88952
191 2 21.5068 29.0312 4.34441
192 3 21.5068 29.0312 7.43464
193 1 20.5981 30.6926 5.88952
254 2 18.5534 24.1781 4.34441
255 3 18.5534 24.1781 7.43464
256 1 17.6447 25.8395 5.88952
257 2 21.4311 25.7521 4.34441
258 3 21.4311 25.7521 7.43464
259 1 20.5223 27.4135 5.88952
334 1 20.4466 24.1344 5.88952
1214 2 18.7049 30.7363 4.34441
1215 3 18.7049 30.7363 7.43464
1268 2 15.7515 25.8832 4.34441
1269 3 15.7515 25.8832 7.43464
1271 2 18.6291 27.4572 4.34441
1272 3 18.6291 27.4572 7.43464
194 2 24.3845 30.6052 4.34441
195 3 24.3845 30.6052 7.43464
260 2 24.3087 27.326 4.34441
261 3 24.3087 27.326 7.43464
262 1 23.4 28.9875 5.88952
263 2 27.1864 28.9 4.34441
264 3 27.1864 28.9 7.43464
265 1 26.2777 30.5615 5.88952
266 2 30.0641 30.474 4.34441
267 3 30.0641 30.474 7.43464
335 2 24.233 24.0469 4.34441
336 3 24.233 24.0469 7.43464
337 1 23.3243 25.7083 5.88952
338 2 27.1107 25.6209 4.34441
339 3 27.1107 25.6209 7.43464
340 1 26.2019 27.2823 5.88952
341 2 29.9884 27.1949 4.34441
342 3 29.9884 27.1949 7.43464
343 1 29.0796 28.8563 5.88952
424 1 26.1262 24.0032 5.88952
425 2 29.9126 23.9158 4.34441
426 3 29.9126 23.9158 7.43464
427 1 29.0039 25.5772 5.88952
344 2 32.866 28.7689 4.34441
345 3 32.866 28.7689 7.43464
346 1 31.9573 30.4303 5.88952
347 2 35.7437 30.3428 4.34441
348 3 35.7437 30.3428 7.43464
428 2 32.7903 25.4897 4.34441
429 3 32.7903 25.4897 7.43464
430 1 31.8816 27.1512 5.88952
431 2 35.668 27.0637 4.34441
432 3 35.668 27.0637 7.43464
433 1 34.7592 28.7251 5.88952
436 1 37.6369 30.2991 5.88952
523 1 31.8058 23.872 5.88952
524 2 35.5922 23.7846 4.34441
525 3 35.5922 23.7846 7.43464
526 1 34.6835 25.446 5.88952
529 1 37.5612 27.02 5.88952
631 1 37.4854 23.7409 5.88952
434 2 38.5456 28.6377 4.34441
435 3 38.5456 28.6377 7.43464
437 2 41.4233 30.2117 4.34441
438 3 41.4233 30.2117 7.43464
527 2 38.4699 25.3586 4.34441
528 3 38.4699 25.3586 7.43464
530 2 41.3476 26.9326 4.34441
531 3 41.3476 26.9326 7.43464
532 1 40.4388 28.594 5.88952
533 2 44.2252 28.5065 4.34441
534 3 44.2252 28.5065 7.43464
535 1 43.3165 30.168 5.88952
632 2 41.2718 23.6534 4.34441
633 3 41.2718 23.6534 7.43464
634 1 40.3631 25.3149 5.88952
635 2 44.1495 25.2274 4.34441
636 3 44.1495 25.2274 7.43464
637 1 43.2408 26.8888 5.88952
748 1 43.1651 23.6097 5.88952
536 2 47.1029 30.0805 4.34441
537 3 47.1029 30.0805 7.43464
638 2 47.0272 26.8014 4.34441
639 3 47.0272 26.8014 7.43464
640 1 46.1185 28.4628 5.88952
641 2 49.9049 28.3754 4.34441
642 3 49.9049 28.3754 7.43464
643 1 48.9961 30.0368 5.88952
644 2 52.7825 29.9493 4.34441
645 3 52.7825 29.9493 7.43464
749 2 46.9515 23.5223 4.34441
750 3 46.9515 23.5223 7.43464
751 1 46.0427 25.1837 5.88952
752 2 49.8291 25.0962 4.34441
753 3 49.8291 25.0962 7.43464
754 1 48.9204 26.7577 5.88952
755 2 52.7068 26.6702 4.34441
756 3 52.7068 26.6702 7.43464
757 1 51.7981 28.3316 5.88952
856 1 48.8447 23.4785 5.88952
857 2 52.6311 23.3911 4.34441
858 3 52.6311 23.3911 7.43464
859 1 51.7223 25.0525 5.88952
758 2 55.5845 28.2442 4.34441
759 3 55.5845 28.2442 7.43464
760 1 54.6757 29.9056 5.88952
761 2 58.4621 29.8182 4.34441
762 3 58.4621 29.8182 7.43464
860 2 55.5087 24.9651 4.34441
861 3 55.5087 24.9651 7.43464
862 1 54.6 26.6265 5.88952
863 2 58.3864 26.5391 4.34441
864 3 58.3864 26.5391 7.43464
865 1 57.4777 28.2005 5.88952
868 1 60.3553 29.7745 5.88952
955 1 54.5243 23.3474 5.88952
956 2 58.3107 23.2599 4.34441
957 3 58.3107 23.2599 7.43464
958 1 57.4019 24.9214 5.88952
961 1 60.2796 26.4953 5.88952
1045 1 60.2039 23.2162 5.88952
866 2 61.2641 28.113 4.34441
867 3 61.2641 28.113 7.43464
869 2 64.1418 29.687 4.34441
870 3 64.1418 29.687 7.43464
959 2 61.1884 24.8339 4.34441
960 3 61.1884 24.8339 7.43464
962 2 64.066 26.4079 4.34441
963 3 64.066 26.4079 7.43464
964 1 63.1573 28.0693 5.88952
965 2 66.9437 27.9819 4.34441
966 3 66.9437 27.9819 7.43464
967 1 66.035 29.6433 5.88952
1046 2 63.9903 23.1288 4.34441
1047 3 63.9903 23.1288 7.43464
1048 1 63.0816 24.7902 5.88952
1049 2 66.868 24.7027 4.34441
1050 3 66.868 24.7027 7.43464
1051 1 65.9592 26.3642 5.88952
1126 1 65.8835 23.085 5.88952
968 2 69.8214 29.5559 4.34441
969 3 69.8214 29.5559 7.43464
1052 2 69.7456 26.2767 4.34441
1053 3 69.7456 26.2767 7.43464
1054 1 68.8369 27.9382 5.88952
1055 2 72.6233 27.8507 4.34441
1056 3 72.6233 27.8507 7.43464
1057 1 71.7146 29.5121 5.88952
1058 2 75.501 29.4247 4.34441
1059 3 75.501 29.4247 7.43464
1129 1 68.7612 24.659 5.88952
1130 2 72.5476 24.5716 4.34441
1131 3 72.5476 24.5716 7.43464
1132 1 71.6388 26.233 5.88952
1133 2 75.4253 26.1456 4.34441
1134 3 75.4253 26.1456 7.43464
1135 1 74.5165 27.807 5.88952
1201 1 74.4408 24.5279 5.88952
1136 2 78.3029 27.7195 4.34441
1137 3 78.3029 27.7195 7.43464
1138 1 77.3942 29.381 5.88952
1139 2 81.1806 29.2935 4.34441
1140 3 81.1806 29.2935 7.43464
1202 2 78.2272 24.4404 4.34441
1203 3 78.2272 24.4404 7.43464
1204 1 77.3185 26.1018 5.88952
1205 2 81.1049 26.0144 4.34441
1206 3 81.1049 26.0144 7.43464
1207 1 80.1961 27.6758 5.88952
1210 1 83.0738 29.2498 5.88952
1264 1 80.1204 24.3967 5.88952
1267 1 82.9981 25.9707 5.88952
1208 2 83.9825 27.5884 4.34441
1209 3 83.9825 27.5884 7.43464
1211 2 86.8602 29.1624 4.34441
1212 3 86.8602 29.1624 7.43464
1265 2 83.9068 24.3093 4.34441
1266 3 83.9068 24.3093 7.43464
1270 1 85.8757 27.5447 5.88952
136 1 20.6738 33.9717 5.88952
1151 2 21.6583 35.5894 4.34441
1152 3 21.6583 35.5894 7.43464
1217 2 21.5825 32.3103 4.34441
1218 3 21.5825 32.3103 7.43464
137 2 24.4602 33.8843 4.34441
138 3 24.4602 33.8843 7.43464
139 1 23.5515 35.5457 5.88952
140 2 27.3379 35.4583 4.34441
141 3 27.3379 35.4583 7.43464
142 1 26.4291 37.1197 5.88952
143 2 30.2155 37.0323 4.34441
144 3 30.2155 37.0323 7.43464
196 1 23.4757 32.2666 5.88952
197 2 27.2621 32.1792 4.34441
198 3 27.2621 32.1792 7.43464
199 1 26.3534 33.8406 5.88952
200 2 30.1398 33.7531 4.34441
201 3 30.1398 33.7531 7.43464
202 1 29.2311 35.4146 5.88952
268 1 29.1553 32.1354 5.88952
1154 2 24.5359 37.1634 4.34441
1155 3 24.5359 37.1634 7.43464
203 2 33.0175 35.3271 4.34441
204 3 33.0175 35.3271 7.43464
205 1 32.1087 36.9885 5.88952
206 2 35.8951 36.9011 4.34441
207 3 35.8951 36.9011 7.43464
269 2 32.9418 32.048 4.34441
270 3 32.9418 32.048 7.43464
271 1 32.033 33.7094 5.88952
272 2 35.8194 33.622 4.34441
273 3 35.8194 33.622 7.43464
274 1 34.9107 35.2834 5.88952
277 1 37.7884 36.8574 5.88952
349 1 34.835 32.0043 5.88952
352 1 37.7126 33.5782 5.88952
275 2 38.6971 35.1959 4.34441
276 3 38.6971 35.1959 7.43464
278 2 41.5748 36.7699 4.34441
279 3 41.5748 36.7699 7.43464
280 1 40.666 38.4314 5.88952
281 2 44.4524 38.3439 4.34441
282 3 44.4524 38.3439 7.43464
350 2 38.6214 31.9168 4.34441
351 3 38.6214 31.9168 7.43464
353 2 41.499 33.4908 4.34441
354 3 41.499 33.4908 7.43464
355 1 40.5903 35.1522 5.88952
356 2 44.3767 35.0648 4.34441
357 3 44.3767 35.0648 7.43464
358 1 43.468 36.7262 5.88952
439 1 40.5146 31.8731 5.88952
440 2 44.301 31.7857 4.34441
441 3 44.301 31.7857 7.43464
442 1 43.3922 33.4471 5.88952
359 2 47.2544 36.6388 4.34441
360 3 47.2544 36.6388 7.43464
361 1 46.3456 38.3002 5.88952
362 2 50.132 38.2127 4.34441
363 3 50.132 38.2127 7.43464
443 2 47.1786 33.3596 4.34441
444 3 47.1786 33.3596 7.43464
445 1 46.2699 35.0211 5.88952
446 2 50.0563 34.9336 4.34441
447 3 50.0563 34.9336 7.43464
448 1 49.1476 36.595 5.88952
449 2 52.934 36.5076 4.34441
450 3 52.934 36.5076 7.43464
451 1 52.0252 38.169 5.88952
538 1 46.1942 31.7419 5.88952
539 2 49.9806 31.6545 4.34441
540 3 49.9806 31.6545 7.43464
541 1 49.0719 33.3159 5.88952
542 2 52.8583 33.2285 4.34441
543 3 52.8583 33.2285 7.43464
544 1 51.9495 34.8899 5.88952
646 1 51.8738 31.6108 5.88952
452 2 55.8117 38.0816 4.34441
453 3 55.8117 38.0816 7.43464
545 2 55.7359 34.8025 4.34441
546 3 55.7359 34.8025 7.43464
547 1 54.8272 36.4639 5.88952
548 2 58.6136 36.3764 4.34441
549 3 58.6136 36.3764 7.43464
550 1 57.7049 38.0379 5.88952
647 2 55.6602 31.5233 4.34441
648 3 55.6602 31.5233 7.43464
649 1 54.7515 33.1848 5.88952
650 2 58.5379 33.0973 4.34441
651 3 58.5379 33.0973 7.43464
652 1 57.6291 34.7587 5.88952
655 1 60.5068 36.3327 5.88952
763 1 57.5534 31.4796 5.88952
766 1 60.4311 33.0536 5.88952
551 2 61.4913 37.9504 4.34441
552 3 61.4913 37.9504 7.43464
653 2 61.4155 34.6713 4.34441
654 3 61.4155 34.6713 7.43464
656 2 64.2932 36.2453 4.34441
657 3 64.2932 36.2453 7.43464
658 1 63.3845 37.9067 5.88952
659 2 67.1709 37.8192 4.34441
660 3 67.1709 37.8192 7.43464
764 2 61.3398 31.3922 4.34441
765 3 61.3398 31.3922 7.43464
767 2 64.2175 32.9661 4.34441
768 3 64.2175 32.9661 7.43464
769 1 63.3087 34.6276 5.88952
770 2 67.0952 34.5401 4.34441
771 3 67.0952 34.5401 7.43464
772 1 66.1864 36.2015 5.88952
871 1 63.233 31.3484 5.88952
872 2 67.0194 31.261 4.34441
873 3 67.0194 31.261 7.43464
874 1 66.1107 32.9224 5.88952
773 2 69.9728 36.1141 4.34441
774 3 69.9728 36.1141 7.43464
775 1 69.0641 37.7755 5.88952
776 2 72.8505 37.6881 4.34441
777 3 72.8505 37.6881 7.43464
875 2 69.8971 32.835 4.34441
876 3 69.8971 32.835 7.43464
877 1 68.9884 34.4964 5.88952
878 2 72.7748 34.409 4.34441
879 3 72.7748 34.409 7.43464
880 1 71.866 36.0704 5.88952
881 2 75.6524 35.9829 4.34441
882 3 75.6524 35.9829 7.43464
883 1 74.7437 37.6444 5.88952
970 1 68.9126 31.2173 5.88952
971 2 72.699 31.1298 4.34441
972 3 72.699 31.1298 7.43464
973 1 71.7903 32.7913 5.88952
974 2 75.5767 32.7038 4.34441
975 3 75.5767 32.7038 7.43464
976 1 74.668 34.3652 5.88952
1060 1 74.5922 31.0861 5.88952
884 2 78.5301 37.5569 4.34441
885 3 78.5301 37.5569 7.43464
977 2 78.4544 34.2778 4.34441
978 3 78.4544 34.2778 7.43464
979 1 77.5456 35.9392 5.88952
980 2 81.332 35.8518 4.34441
981 3 81.332 35.8518 7.43464
982 1 80.4233 37.5132 5.88952
1061 2 78.3786 30.9987 4.34441
1062 3 78.3786 30.9987 7.43464
1063 1 77.4699 32.6601 5.88952
1064 2 81.2563 32.5726 4.34441
1065 3 81.2563 32.5726 7.43464
1066 1 80.3476 34.2341 5.88952
1069 1 83.2253 35.8081 5.88952
1141 1 80.2719 30.9549 5.88952
1144 1 83.1495 32.5289 5.88952
983 2 84.2097 37.4258 4.34441
984 3 84.2097 37.4258 7.43464
1067 2 84.134 34.1466 4.34441
1068 3 84.134 34.1466 7.43464
1070 2 87.0117 35.7206 4.34441
1071 3 87.0117 35.7206 7.43464
1072 1 86.1029 37.382 5.88952
1073 2 89.8893 37.2946 4.34441
1074 3 89.8893 37.2946 7.43464
1142 2 84.0583 30.8675 4.34441
1143 3 84.0583 30.8675 7.43464
1145 2 86.9359 32.4415 4.34441
1146 3 86.9359 32.4415 7.43464
1147 1 86.0272 34.1029 5.88952
1148 2 89.8136 34.0155 4.34441
1149 3 89.8136 34.0155 7.43464
1150 1 88.9049 35.6769 5.88952
1213 1 85.9515 30.8238 5.88952
1216 1 88.8291 32.3978 5.88952
1153 1 91.7825 37.2509 5.88952
55 1 26.5806 43.678 5.88952
56 2 30.367 43.5905 4.34441
57 3 30.367 43.5905 7.43464
58 1 29.4583 45.2519 5.88952
91 1 23.6272 38.8248 5.88952
92 2 27.4136 38.7374 4.34441
93 3 27.4136 38.7374 7.43464
94 1 26.5049 40.3988 5.88952
95 2 30.2913 40.3114 4.34441
96 3 30.2913 40.3114 7.43464
97 1 29.3825 41.9728 5.88952
145 1 29.3068 38.6937 5.88952
998 2 27.5651 45.2957 4.34441
999 3 27.5651 45.2957 7.43464
1079 2 24.6117 40.4426 4.34441
1080 3 24.6117 40.4426 7.43464
1082 2 27.4893 42.0165 4.34441
1083 3 27.4893 42.0165 7.43464
59 2 33.2447 45.1645 4.34441
60 3 33.2447 45.1645 7.43464
98 2 33.1689 41.8854 4.34441
99 3 33.1689 41.8854 7.43464
100 1 32.2602 43.5468 5.88952
101 2 36.0466 43.4593 4.34441
102 3 36.0466 43.4593 7.43464
103 1 35.1379 45.1208 5.88952
146 2 33.0932 38.6062 4.34441
147 3 33.0932 38.6062 7.43464
148 1 32.1845 40.2677 5.88952
149 2 35.9709 40.1802 4.34441
150 3 35.9709 40.1802 7.43464
151 1 35.0621 41.8416 5.88952
154 1 37.9398 43.4156 5.88952
208 1 34.9864 38.5625 5.88952
211 1 37.8641 40.1365 5.88952
104 2 38.9243 45.0333 4.34441
105 3 38.9243 45.0333 7.43464
152 2 38.8485 41.7542 4.34441
153 3 38.8485 41.7542 7.43464
155 2 41.7262 43.3282 4.34441
156 3 41.7262 43.3282 7.43464
157 1 40.8175 44.9896 5.88952
158 2 44.6039 44.9022 4.34441
159 3 44.6039 44.9022 7.43464
209 2 38.7728 38.4751 4.34441
210 3 38.7728 38.4751 7.43464
212 2 41.6505 40.0491 4.34441
213 3 41.6505 40.0491 7.43464
214 1 40.7418 41.7105 5.88952
215 2 44.5282 41.623 4.34441
216 3 44.5282 41.623 7.43464
217 1 43.6194 43.2845 5.88952
283 1 43.5437 40.0053 5.88952
218 2 47.4058 43.197 4.34441
219 3 47.4058 43.197 7.43464
220 1 46.4971 44.8584 5.88952
221 2 50.2835 44.771 4.34441
222 3 50.2835 44.771 7.43464
284 2 47.3301 39.9179 4.34441
285 3 47.3301 39.9179 7.43464
286 1 46.4214 41.5793 5.88952
287 2 50.2078 41.4919 4.34441
288 3 50.2078 41.4919 7.43464
289 1 49.299 43.1533 5.88952
290 2 53.0854 43.0659 4.34441
291 3 53.0854 43.0659 7.43464
292 1 52.1767 44.7273 5.88952
364 1 49.2233 39.8742 5.88952
365 2 53.0097 39.7867 4.34441
366 3 53.0097 39.7867 7.43464
367 1 52.101 41.4481 5.88952
293 2 55.9631 44.6398 4.34441
294 3 55.9631 44.6398 7.43464
368 2 55.8874 41.3607 4.34441
369 3 55.8874 41.3607 7.43464
370 1 54.9786 43.0221 5.88952
371 2 58.7651 42.9347 4.34441
372 3 58.7651 42.9347 7.43464
373 1 57.8563 44.5961 5.88952
454 1 54.9029 39.743 5.88952
455 2 58.6893 39.6556 4.34441
456 3 58.6893 39.6556 7.43464
457 1 57.7806 41.317 5.88952
460 1 60.6583 42.891 5.88952
553 1 60.5825 39.6118 5.88952
374 2 61.6427 44.5087 4.34441
375 3 61.6427 44.5087 7.43464
377 2 64.5204 46.0826 4.34441
378 3 64.5204 46.0826 7.43464
458 2 61.567 41.2295 4.34441
459 3 61.567 41.2295 7.43464
461 2 64.4447 42.8035 4.34441
462 3 64.4447 42.8035 7.43464
463 1 63.5359 44.4649 5.88952
464 2 67.3223 44.3775 4.34441
465 3 67.3223 44.3775 7.43464
466 1 66.4136 46.0389 5.88952
554 2 64.3689 39.5244 4.34441
555 3 64.3689 39.5244 7.43464
556 1 63.4602 41.1858 5.88952
557 2 67.2466 41.0984 4.34441
558 3 67.2466 41.0984 7.43464
559 1 66.3379 42.7598 5.88952