LAMMPS data file

2814 atoms
6 atom types
0.0 71.03301767522626 xlo xhi
0.0 61.516397814722886 ylo yhi
0.0 35.0 zlo zhi
35.516508838594895 0.0 0.0 xy xz yz

Masses

1 183.84
2 78.971
3 78.971
4 183.84
5 78.971
6 78.971

Atoms

1 1 35.44078067470971 58.237272131635315 5.889523815
2 2 39.22718886631363 58.149828780087184 4.34440811
3 3 39.22718886631363 58.149828780087184 7.4346395199999975
4 1 38.318450900383645 59.81125245951735 5.889523815
5 2 42.10485909198756 59.72380910796919 4.34440811
6 3 42.10485909198756 59.72380910796919 7.4346395199999975
7 1 41.19612112605758 61.38523278739936 5.889523815
8 2 44.9825293176615 61.29778943585123 4.34440811
9 3 44.9825293176615 61.29778943585123 7.4346395199999975
10 1 32.48738228515055 53.384166120665704 5.889523815
11 2 36.27379047675447 53.29672276911755 4.34440811
12 3 36.27379047675447 53.29672276911755 7.4346395199999975
13 1 35.3650525108245 54.95814644854774 5.889523815
14 2 39.15146070242842 54.870703096999605 4.34440811
15 3 39.15146070242842 54.870703096999605 7.4346395199999975
16 1 38.24272273649843 56.53212677642975 5.889523815
17 2 42.029130928102354 56.44468342488162 4.34440811
18 3 42.029130928102354 56.44468342488162 7.4346395199999975
19 1 41.120392962172374 58.10610710431179 5.889523815
20 2 44.906801153776314 58.01866375276367 4.34440811
21 3 44.906801153776314 58.01866375276367 7.4346395199999975
22 1 43.998063187846334 59.680087432193844 5.889523815
23 2 47.78447137945026 59.59264408064571 4.34440811
24 3 47.78447137945026 59.59264408064571 7.4346395199999975
25 1 46.87573341352026 61.25406776007586 5.889523815
26 2 50.66214160512419 61.16662440852773 4.34440811
27 3 50.66214160512419 61.16662440852773 7.4346395199999975
28 1 29.533983895591405 48.53106010969608 5.889523815
29 2 33.32039208719533 48.443616758147954 4.34440811
30 3 33.32039208719533 48.443616758147954 7.4346395199999975
31 1 32.41165412126536 50.105040437578126 5.889523815
32 2 36.198062312869276 50.01759708602999 4.34440811
33 3 36.198062312869276 50.01759708602999 7.4346395199999975
34 1 35.289324346939296 51.679020765460166 5.889523815
35 2 39.075732538543235 51.59157741391204 4.34440811
36 3 39.075732538543235 51.59157741391204 7.4346395199999975
37 1 38.16699457261324 53.2530010933422 5.889523815
38 2 41.953402764217174 53.16555774179407 4.34440811
39 3 41.953402764217174 53.16555774179407 7.4346395199999975
40 1 41.044664798287194 54.82698142122424 5.889523815
41 2 44.831072989891105 54.739538069676094 4.34440811
42 3 44.831072989891105 54.739538069676094 7.4346395199999975
43 1 43.922335023961125 56.40096174910625 5.889523815
44 2 47.70874321556505 56.31351839755812 4.34440811
45 3 47.70874321556505 56.31351839755812 7.4346395199999975
46 1 46.80000524963508 57.974942076988306 5.889523815
47 2 50.586413441239 57.887498725440174 4.34440811
48 3 50.586413441239 57.887498725440174 7.4346395199999975
49 1 49.67767547530901 59.54892240487032 5.889523815
50 2 53.46408366691294 59.461479053322186 4.34440811
51 3 53.46408366691294 59.461479053322186 7.4346395199999975
52 1 52.55534570098297 61.12290273275237 5.889523815
53 2 56.3417538925869 61.03545938120424 4.34440811
54 3 56.3417538925869 61.03545938120424 7.4346395199999975
55 1 26.580585506032264 43.677954098726474 5.889523815
56 2 30.366993697636197 43.59051074717835 4.34440811
57 3 30.366993697636197 43.59051074717835 7.4346395199999975
58 1 29.458255731706217 45.25193442660852 5.889523815
59 2 33.24466392331014 45.16449107506038 4.34440811
60 3 33.24466392331014 45.16449107506038 7.4346395199999975
61 1 32.33592595738016 46.825914754490555 5.889523815
62 2 36.12233414898408 46.738471402942416 4.34440811
63 3 36.12233414898408 46.738471402942416 7.4346395199999975
64 1 35.2135961830541 48.39989508237258 5.889523815
65 2 39.000004374658026 48.312451730824456 4.34440811
66 3 39.000004374658026 48.312451730824456 7.4346395199999975
67 1 38.09126640872804 49.973875410254614 5.889523815
68 2 41.877674600331964 49.886432058706475 4.34440811
69 3 41.877674600331964 49.886432058706475 7.4346395199999975
70 1 40.968936634401985 51.54785573813664 5.889523815
71 2 44.75534482600591 51.46041238658851 4.34440811
72 3 44.75534482600591 51.46041238658851 7.4346395199999975
73 1 43.84660686007594 53.121836066018695 5.889523815
74 2 47.63301505167985 53.03439271447054 4.34440811
75 3 47.63301505167985 53.03439271447054 7.4346395199999975
76 1 46.724277085749875 54.695816393900714 5.889523815
77 2 50.5106852773538 54.60837304235259 4.34440811
78 3 50.5106852773538 54.60837304235259 7.4346395199999975
79 1 49.60194731142383 56.26979672178277 5.889523815
80 2 53.38835550302775 56.18235337023464 4.34440811
81 3 53.38835550302775 56.18235337023464 7.4346395199999975
82 1 52.47961753709776 57.843777049664794 5.889523815
83 2 56.266025728701685 57.75633369811665 4.34440811
84 3 56.266025728701685 57.75633369811665 7.4346395199999975
85 1 55.3572877627717 59.41775737754682 5.889523815
86 2 59.14369595437563 59.33031402599869 4.34440811
87 3 59.14369595437563 59.33031402599869 7.4346395199999975
88 1 58.23495798844565 60.99173770542886 5.889523815
89 2 62.02136618004959 60.90429435388074 4.34440811
90 3 62.02136618004959 60.90429435388074 7.4346395199999975
91 1 23.627187116473124 38.82484808775686 5.889523815
92 2 27.413595308077056 38.73740473620874 4.34440811
93 3 27.413595308077056 38.73740473620874 7.4346395199999975
94 1 26.50485734214707 40.398828415638896 5.889523815
95 2 30.291265533750998 40.31138506409077 4.34440811
96 3 30.291265533750998 40.31138506409077 7.4346395199999975
97 1 29.38252756782102 41.97280874352094 5.889523815
98 2 33.16893575942494 41.885365391972805 4.34440811
99 3 33.16893575942494 41.885365391972805 7.4346395199999975
100 1 32.26019779349497 43.54678907140298 5.889523815
101 2 36.0466059850989 43.45934571985486 4.34440811
102 3 36.0466059850989 43.45934571985486 7.4346395199999975
103 1 35.137868019168906 45.12076939928501 5.889523815
104 2 38.92427621077283 45.03332604773688 4.34440811
105 3 38.92427621077283 45.03332604773688 7.4346395199999975
106 1 38.015538244842844 46.69474972716704 5.889523815
107 2 41.80194643644678 46.60730637561892 4.34440811
108 3 41.80194643644678 46.60730637561892 7.4346395199999975
109 1 40.8932084705168 48.26873005504909 5.889523815
110 2 44.67961666212071 48.18128670350094 4.34440811
111 3 44.67961666212071 48.18128670350094 7.4346395199999975
112 1 43.77087869619074 49.84271038293112 5.889523815
113 2 47.55728688779465 49.75526703138298 4.34440811
114 3 47.55728688779465 49.75526703138298 7.4346395199999975
115 1 46.64854892186468 51.41669071081316 5.889523815
116 2 50.4349571134686 51.32924735926501 4.34440811
117 3 50.4349571134686 51.32924735926501 7.4346395199999975
118 1 49.526219147538626 52.99067103869519 5.889523815
119 2 53.31262733914255 52.90322768714706 4.34440811
120 3 53.31262733914255 52.90322768714706 7.4346395199999975
121 1 52.40388937321258 54.56465136657722 5.889523815
122 2 56.19029756481649 54.47720801502908 4.34440811
123 3 56.19029756481649 54.47720801502908 7.4346395199999975
124 1 55.28155959888652 56.13863169445926 5.889523815
125 2 59.06796779049045 56.05118834291113 4.34440811
126 3 59.06796779049045 56.05118834291113 7.4346395199999975
127 1 58.159229824560455 57.71261202234128 5.889523815
128 2 61.945638016164374 57.62516867079315 4.34440811
129 3 61.945638016164374 57.62516867079315 7.4346395199999975
130 1 61.036900050234394 59.28659235022332 5.889523815
131 2 64.82330824183833 59.199148998675206 4.34440811
132 3 64.82330824183833 59.199148998675206 7.4346395199999975
133 1 63.91457027590834 60.86057267810536 5.889523815
134 2 67.70097846751227 60.77312932655723 4.34440811
135 3 67.70097846751227 60.77312932655723 7.4346395199999975
136 1 20.673788726913983 33.97174207678725 5.889523815
137 2 24.460196918517916 33.88429872523913 4.34440811
138 3 24.460196918517916 33.88429872523913 7.4346395199999975
139 1 23.551458952587925 35.54572240466929 5.889523815
140 2 27.337867144191858 35.45827905312116 4.34440811
141 3 27.337867144191858 35.45827905312116 7.4346395199999975
142 1 26.42912917826188 37.11970273255134 5.889523815
143 2 30.215537369865803 37.0322593810032 4.34440811
144 3 30.215537369865803 37.0322593810032 7.4346395199999975
145 1 29.306799403935823 38.69368306043337 5.889523815
146 2 33.093207595539745 38.606239708885234 4.34440811
147 3 33.093207595539745 38.606239708885234 7.4346395199999975
148 1 32.18446962960977 40.26766338831541 5.889523815
149 2 35.970877821213705 40.18022003676729 4.34440811
150 3 35.970877821213705 40.18022003676729 7.4346395199999975
151 1 35.062139855283704 41.84164371619743 5.889523815
152 2 38.848548046887636 41.75420036464931 4.34440811
153 3 38.848548046887636 41.75420036464931 7.4346395199999975
154 1 37.93981008095765 43.41562404407947 5.889523815
155 2 41.72621827256158 43.32818069253134 4.34440811
156 3 41.72621827256158 43.32818069253134 7.4346395199999975
157 1 40.8174803066316 44.98960437196151 5.889523815
158 2 44.60388849823553 44.902161020413374 4.34440811
159 3 44.60388849823553 44.902161020413374 7.4346395199999975
160 1 43.69515053230554 46.563584699843545 5.889523815
161 2 47.48155872390946 46.47614134829539 4.34440811
162 3 47.48155872390946 46.47614134829539 7.4346395199999975
163 1 46.57282075797949 48.137565027725586 5.889523815
164 2 50.35922894958341 48.05012167617743 4.34440811
165 3 50.35922894958341 48.05012167617743 7.4346395199999975
166 1 49.45049098365344 49.71154535560762 5.889523815
167 2 53.23689917525736 49.62410200405949 4.34440811
168 3 53.23689917525736 49.62410200405949 7.4346395199999975
169 1 52.32816120932737 51.28552568348964 5.889523815
170 2 56.114569400931295 51.19808233194151 4.34440811
171 3 56.114569400931295 51.19808233194151 7.4346395199999975
172 1 55.205831435001315 52.85950601137167 5.889523815
173 2 58.992239626605254 52.772062659823554 4.34440811
174 3 58.992239626605254 52.772062659823554 7.4346395199999975
175 1 58.08350166067526 54.43348633925371 5.889523815
176 2 61.869909852279186 54.34604298770557 4.34440811
177 3 61.869909852279186 54.34604298770557 7.4346395199999975
178 1 60.96117188634921 56.00746666713576 5.889523815
179 2 64.74758007795313 55.920023315587606 4.34440811
180 3 64.74758007795313 55.920023315587606 7.4346395199999975
181 1 63.83884211202315 57.58144699501778 5.889523815
182 2 67.62525030362708 57.49400364346966 4.34440811
183 3 67.62525030362708 57.49400364346966 7.4346395199999975
184 1 66.7165123376971 59.155427322899826 5.889523815
185 2 70.50292052930104 59.0679839713517 4.34440811
186 3 70.50292052930104 59.0679839713517 7.4346395199999975
187 1 69.59418256337104 60.72940765078185 5.889523815
188 2 73.38059075497496 60.64196429923372 4.34440811
189 3 73.38059075497496 60.64196429923372 7.4346395199999975
190 1 17.720390337354853 29.118636065817658 5.889523815
191 2 21.506798528958782 29.031192714269533 4.34440811
192 3 21.506798528958782 29.031192714269533 7.4346395199999975
193 1 20.59806056302879 30.69261639369968 5.889523815
194 2 24.384468754632717 30.605173042151556 4.34440811
195 3 24.384468754632717 30.605173042151556 7.4346395199999975
196 1 23.475730788702734 32.26659672158171 5.889523815
197 2 27.262138980306663 32.17915337003359 4.34440811
198 3 27.262138980306663 32.17915337003359 7.4346395199999975
199 1 26.353401014376683 33.84057704946376 5.889523815
200 2 30.139809205980605 33.75313369791562 4.34440811
201 3 30.139809205980605 33.75313369791562 7.4346395199999975
202 1 29.23107124005063 35.4145573773458 5.889523815
203 2 33.017479431654564 35.32711402579768 4.34440811
204 3 33.017479431654564 35.32711402579768 7.4346395199999975
205 1 32.10874146572457 36.98853770522783 5.889523815
206 2 35.8951496573285 36.90109435367971 4.34440811
207 3 35.8951496573285 36.90109435367971 7.4346395199999975
208 1 34.98641169139851 38.56251803310986 5.889523815
209 2 38.77281988300244 38.47507468156173 4.34440811
210 3 38.77281988300244 38.47507468156173 7.4346395199999975
211 1 37.86408191707246 40.13649836099191 5.889523815
212 2 41.65049010867639 40.04905500944377 4.34440811
213 3 41.65049010867639 40.04905500944377 7.4346395199999975
214 1 40.74175214274641 41.71047868887394 5.889523815
215 2 44.528160334350325 41.62303533732581 4.34440811
216 3 44.528160334350325 41.62303533732581 7.4346395199999975
217 1 43.619422368420345 43.28445901675597 5.889523815
218 2 47.40583056002428 43.19701566520785 4.34440811
219 3 47.40583056002428 43.19701566520785 7.4346395199999975
220 1 46.49709259409429 44.85843934463801 5.889523815
221 2 50.28350078569821 44.770995993089876 4.34440811
222 3 50.28350078569821 44.770995993089876 7.4346395199999975
223 1 49.37476281976823 46.43241967252004 5.889523815
224 2 53.16117101137216 46.34497632097191 4.34440811
225 3 53.16117101137216 46.34497632097191 7.4346395199999975
226 1 52.25243304544217 48.00640000040207 5.889523815
227 2 56.0388412370461 47.918956648853936 4.34440811
228 3 56.0388412370461 47.918956648853936 7.4346395199999975
229 1 55.13010327111611 49.58038032828411 5.889523815
230 2 58.91651146272005 49.49293697673598 4.34440811
231 3 58.91651146272005 49.49293697673598 7.4346395199999975
232 1 58.00777349679006 51.15436065616614 5.889523815
233 2 61.794181688394 51.066917304618016 4.34440811
234 3 61.794181688394 51.066917304618016 7.4346395199999975
235 1 60.88544372246401 52.72834098404818 5.889523815
236 2 64.67185191406793 52.64089763250004 4.34440811
237 3 64.67185191406793 52.64089763250004 7.4346395199999975
238 1 63.76311394813795 54.302321311930214 5.889523815
239 2 67.5495221397419 54.21487796038209 4.34440811
240 3 67.5495221397419 54.21487796038209 7.4346395199999975
241 1 66.6407841738119 55.87630163981224 5.889523815
242 2 70.42719236541583 55.78885828826412 4.34440811
243 3 70.42719236541583 55.78885828826412 7.4346395199999975
244 1 69.51845439948585 57.45028196769428 5.889523815
245 2 73.30486259108979 57.36283861614616 4.34440811
246 3 73.30486259108979 57.36283861614616 7.4346395199999975
247 1 72.39612462515979 59.02426229557631 5.889523815
248 2 76.18253281676374 58.93681894402819 4.34440811
249 3 76.18253281676374 58.93681894402819 7.4346395199999975
250 1 75.27379485083372 60.59824262345834 5.889523815
251 2 79.06020304243768 60.51079927191023 4.34440811
252 3 79.06020304243768 60.51079927191023 7.4346395199999975
253 1 14.766991947795702 24.26553005484804 5.889523815
254 2 18.55340013939963 24.178086703299915 4.34440811
255 3 18.55340013939963 24.178086703299915 7.4346395199999975
256 1 17.644662173469648 25.839510382730083 5.889523815
257 2 21.431070365073573 25.752067031181944 4.34440811
258 3 21.431070365073573 25.752067031181944 7.4346395199999975
259 1 20.522332399143597 27.41349071061212 5.889523815
260 2 24.308740590747526 27.326047359063992 4.34440811
261 3 24.308740590747526 27.326047359063992 7.4346395199999975
262 1 23.40000262481754 28.987471038494153 5.889523815
263 2 27.186410816421464 28.90002768694602 4.34440811
264 3 27.186410816421464 28.90002768694602 7.4346395199999975
265 1 26.277672850491484 30.561451366376186 5.889523815
266 2 30.06408104209541 30.474008014828062 4.34440811
267 3 30.06408104209541 30.474008014828062 7.4346395199999975
268 1 29.155343076165423 32.135431694258216 5.889523815
269 2 32.94175126776935 32.04798834271009 4.34440811
270 3 32.94175126776935 32.04798834271009 7.4346395199999975
271 1 32.03301330183937 33.70941202214025 5.889523815
272 2 35.8194214934433 33.621968670592125 4.34440811
273 3 35.8194214934433 33.621968670592125 7.4346395199999975
274 1 34.91068352751332 35.2833923500223 5.889523815
275 2 38.697091719117246 35.19594899847416 4.34440811
276 3 38.697091719117246 35.19594899847416 7.4346395199999975
277 1 37.788353753187266 36.85737267790433 5.889523815
278 2 41.574761944791184 36.76992932635619 4.34440811
279 3 41.574761944791184 36.76992932635619 7.4346395199999975
280 1 40.6660239788612 38.43135300578635 5.889523815
281 2 44.45243217046514 38.34390965423823 4.34440811
282 3 44.45243217046514 38.34390965423823 7.4346395199999975
283 1 43.54369420453515 40.00533333366839 5.889523815
284 2 47.330102396139075 39.917889982120265 4.34440811
285 3 47.330102396139075 39.917889982120265 7.4346395199999975
286 1 46.42136443020909 41.57931366155043 5.889523815
287 2 50.207772621813014 41.4918703100023 4.34440811
288 3 50.207772621813014 41.4918703100023 7.4346395199999975
289 1 49.29903465588304 43.15329398943247 5.889523815
290 2 53.08544284748696 43.06585063788433 4.34440811
291 3 53.08544284748696 43.06585063788433 7.4346395199999975
292 1 52.17670488155698 44.727274317314496 5.889523815
293 2 55.9631130731609 44.639830965766365 4.34440811
294 3 55.9631130731609 44.639830965766365 7.4346395199999975
295 1 55.054375107230925 46.30125464519653 5.889523815
296 2 58.84078329883485 46.21381129364841 4.34440811
297 3 58.84078329883485 46.21381129364841 7.4346395199999975
298 1 57.93204533290487 47.87523497307856 5.889523815
299 2 61.718453524508796 47.787791621530445 4.34440811
300 3 61.718453524508796 47.787791621530445 7.4346395199999975
301 1 60.809715558578816 49.449215300960596 5.889523815
302 2 64.59612375018276 49.36177194941248 4.34440811
303 3 64.59612375018276 49.36177194941248 7.4346395199999975
304 1 63.68738578425276 51.023195628842636 5.889523815
305 2 67.4737939758567 50.93575227729451 4.34440811
306 3 67.4737939758567 50.93575227729451 7.4346395199999975
307 1 66.5650560099267 52.597175956724676 5.889523815
308 2 70.35146420153062 52.50973260517654 4.34440811
309 3 70.35146420153062 52.50973260517654 7.4346395199999975
310 1 69.44272623560063 54.17115628460671 5.889523815
311 2 73.22913442720457 54.08371293305858 4.34440811
312 3 73.22913442720457 54.08371293305858 7.4346395199999975
313 1 72.3203964612746 55.74513661248874 5.889523815
314 2 76.10680465287851 55.65769326094061 4.34440811
315 3 76.10680465287851 55.65769326094061 7.4346395199999975
316 1 75.19806668694852 57.319116940370776 5.889523815
317 2 78.98447487855248 57.23167358882266 4.34440811
318 3 78.98447487855248 57.23167358882266 7.4346395199999975
319 1 78.07573691262247 58.8930972682528 5.889523815
320 2 81.86214510422641 58.80565391670469 4.34440811
321 3 81.86214510422641 58.80565391670469 7.4346395199999975
322 1 80.95340713829641 60.46707759613484 5.889523815
323 2 84.73981532990035 60.37963424458672 4.34440811
324 3 84.73981532990035 60.37963424458672 7.4346395199999975
325 1 11.813593558236562 19.41242404387843 5.889523815
326 2 15.600001749840494 19.324980692330307 4.34440811
327 3 15.600001749840494 19.324980692330307 7.4346395199999975
328 1 14.69126378391051 20.98640437176047 5.889523815
329 2 18.47767197551444 20.89896102021234 4.34440811
330 3 18.47767197551444 20.89896102021234 7.4346395199999975
331 1 17.568934009584453 22.560384699642505 5.889523815
332 2 21.35534220118838 22.47294134809437 4.34440811
333 3 21.35534220118838 22.47294134809437 7.4346395199999975
334 1 20.4466042352584 24.134365027524545 5.889523815
335 2 24.23301242686232 24.04692167597641 4.34440811
336 3 24.23301242686232 24.04692167597641 7.4346395199999975
337 1 23.32427446093234 25.70834535540658 5.889523815
338 2 27.110682652536266 25.620902003858443 4.34440811
339 3 27.110682652536266 25.620902003858443 7.4346395199999975
340 1 26.20194468660629 27.28232568328861 5.889523815
341 2 29.988352878210218 27.194882331740487 4.34440811
342 3 29.988352878210218 27.194882331740487 7.4346395199999975
343 1 29.079614912280228 28.85630601117064 5.889523815
344 2 32.86602310388416 28.768862659622513 4.34440811
345 3 32.86602310388416 28.768862659622513 7.4346395199999975
346 1 31.95728513795417 30.43028633905268 5.889523815
347 2 35.743693329558106 30.34284298750455 4.34440811
348 3 35.743693329558106 30.34284298750455 7.4346395199999975
349 1 34.83495536362812 32.004266666934726 5.889523815
350 2 38.621363555232044 31.916823315386583 4.34440811
351 3 38.621363555232044 31.916823315386583 7.4346395199999975
352 1 37.712625589302064 33.57824699481676 5.889523815
353 2 41.499033780906004 33.490803643268634 4.34440811
354 3 41.499033780906004 33.490803643268634 7.4346395199999975
355 1 40.590295814976 35.15222732269879 5.889523815
356 2 44.376704006579935 35.06478397115066 4.34440811
357 3 44.376704006579935 35.06478397115066 7.4346395199999975
358 1 43.46796604064995 36.72620765058082 5.889523815
359 2 47.25437423225388 36.638764299032694 4.34440811
360 3 47.25437423225388 36.638764299032694 7.4346395199999975
361 1 46.34563626632389 38.30018797846286 5.889523815
362 2 50.132044457927826 38.21274462691474 4.34440811
363 3 50.132044457927826 38.21274462691474 7.4346395199999975
364 1 49.22330649199784 39.87416830634489 5.889523815
365 2 53.00971468360178 39.786724954796775 4.34440811
366 3 53.00971468360178 39.786724954796775 7.4346395199999975
367 1 52.10097671767177 41.44814863422692 5.889523815
368 2 55.88738490927572 41.3607052826788 4.34440811
369 3 55.88738490927572 41.3607052826788 7.4346395199999975
370 1 54.97864694334572 43.02212896210896 5.889523815
371 2 58.765055134949655 42.934685610560834 4.34440811
372 3 58.765055134949655 42.934685610560834 7.4346395199999975
373 1 57.85631716901967 44.596109289991 5.889523815
374 2 61.642725360623594 44.50866593844286 4.34440811
375 3 61.642725360623594 44.50866593844286 7.4346395199999975
376 1 60.73398739469361 46.17008961787303 5.889523815
377 2 64.52039558629754 46.08264626632491 4.34440811
378 3 64.52039558629754 46.08264626632491 7.4346395199999975
379 1 63.61165762036755 47.744069945755065 5.889523815
380 2 67.39806581197149 47.65662659420695 4.34440811
381 3 67.39806581197149 47.65662659420695 7.4346395199999975
382 1 66.48932784604149 49.3180502736371 5.889523815
383 2 70.27573603764543 49.23060692208898 4.34440811
384 3 70.27573603764543 49.23060692208898 7.4346395199999975
385 1 69.36699807171546 50.89203060151913 5.889523815
386 2 73.15340626331937 50.804587249971 4.34440811
387 3 73.15340626331937 50.804587249971 7.4346395199999975
388 1 72.24466829738937 52.46601092940116 5.889523815
389 2 76.0310764889933 52.37856757785302 4.34440811
390 3 76.0310764889933 52.37856757785302 7.4346395199999975
391 1 75.12233852306333 54.0399912572832 5.889523815
392 2 78.90874671466726 53.95254790573508 4.34440811
393 3 78.90874671466726 53.95254790573508 7.4346395199999975
394 1 78.00000874873727 55.61397158516524 5.889523815
395 2 81.78641694034121 55.52652823361711 4.34440811
396 3 81.78641694034121 55.52652823361711 7.4346395199999975
397 1 80.87767897441124 57.18795191304729 5.889523815
398 2 84.66408716601515 57.100508561499154 4.34440811
399 3 84.66408716601515 57.100508561499154 7.4346395199999975
400 1 83.75534920008515 58.761932240929305 5.889523815
401 2 87.5417573916891 58.67448888938118 4.34440811
402 3 87.5417573916891 58.67448888938118 7.4346395199999975
403 1 86.63301942575913 60.33591256881136 5.889523815
404 2 90.41942761736304 60.24846921726322 4.34440811
405 3 90.41942761736304 60.24846921726322 7.4346395199999975
406 1 8.860195168677427 14.559318032908829 5.889523815
407 2 12.646603360281354 14.471874681360699 4.34440811
408 3 12.646603360281354 14.471874681360699 7.4346395199999975
409 1 11.737865394351367 16.133298360790857 5.889523815
410 2 15.524273585955296 16.045855009242732 4.34440811
411 3 15.524273585955296 16.045855009242732 7.4346395199999975
412 1 14.615535620025314 17.7072786886729 5.889523815
413 2 18.40194381162924 17.61983533712477 4.34440811
414 3 18.40194381162924 17.61983533712477 7.4346395199999975
415 1 17.493205845699254 19.28125901655493 5.889523815
416 2 21.279614037303187 19.193815665006802 4.34440811
417 3 21.279614037303187 19.193815665006802 7.4346395199999975
418 1 20.370876071373203 20.85523934443697 5.889523815
419 2 24.15728426297713 20.76779599288884 4.34440811
420 3 24.15728426297713 20.76779599288884 7.4346395199999975
421 1 23.248546297047145 22.429219672319004 5.889523815
422 2 27.034954488651078 22.34177632077088 4.34440811
423 3 27.034954488651078 22.34177632077088 7.4346395199999975
424 1 26.126216522721084 24.003200000201034 5.889523815
425 2 29.91262471432502 23.915756648652906 4.34440811
426 3 29.91262471432502 23.915756648652906 7.4346395199999975
427 1 29.00388674839503 25.57718032808307 5.889523815
428 2 32.790294939998965 25.48973697653494 4.34440811
429 3 32.790294939998965 25.48973697653494 7.4346395199999975
430 1 31.881556974068975 27.151160655965107 5.889523815
431 2 35.6679651656729 27.063717304416986 4.34440811
432 3 35.6679651656729 27.063717304416986 7.4346395199999975
433 1 34.759227199742924 28.72514098384714 5.889523815
434 2 38.54563539134685 28.637697632299016 4.34440811
435 3 38.54563539134685 28.637697632299016 7.4346395199999975
436 1 37.63689742541686 30.29912131172917 5.889523815
437 2 41.423305617020795 30.211677960181056 4.34440811
438 3 41.423305617020795 30.211677960181056 7.4346395199999975
439 1 40.51456765109081 31.873101639611203 5.889523815
440 2 44.300975842694726 31.78565828806308 4.34440811
441 3 44.300975842694726 31.78565828806308 7.4346395199999975
442 1 43.39223787676477 33.447081967493254 5.889523815
443 2 47.178646068368685 33.35963861594512 4.34440811
444 3 47.178646068368685 33.35963861594512 7.4346395199999975
445 1 46.2699081024387 35.02106229537529 5.889523815
446 2 50.056316294042624 34.933618943827156 4.34440811
447 3 50.056316294042624 34.933618943827156 7.4346395199999975
448 1 49.14757832811263 36.595042623257314 5.889523815
449 2 52.93398651971657 36.5075992717092 4.34440811
450 3 52.93398651971657 36.5075992717092 7.4346395199999975
451 1 52.02524855378658 38.16902295113935 5.889523815
452 2 55.81165674539052 38.08157959959124 4.34440811
453 3 55.81165674539052 38.08157959959124 7.4346395199999975
454 1 54.90291877946053 39.74300327902139 5.889523815
455 2 58.68932697106446 39.65555992747326 4.34440811
456 3 58.68932697106446 39.65555992747326 7.4346395199999975
457 1 57.78058900513447 41.31698360690342 5.889523815
458 2 61.56699719673841 41.229540255355296 4.34440811
459 3 61.56699719673841 41.229540255355296 7.4346395199999975
460 1 60.658259230808426 42.890963934785454 5.889523815
461 2 64.44466742241235 42.803520583237315 4.34440811
462 3 64.44466742241235 42.803520583237315 7.4346395199999975
463 1 63.535929456482364 44.46494426266749 5.889523815
464 2 67.32233764808629 44.37750091111935 4.34440811
465 3 67.32233764808629 44.37750091111935 7.4346395199999975
466 1 66.41359968215632 46.03892459054953 5.889523815
467 2 70.20000787376024 45.95148123900138 4.34440811
468 3 70.20000787376024 45.95148123900138 7.4346395199999975
469 1 69.29126990783026 47.61290491843156 5.889523815
470 2 73.0776780994342 47.52546156688344 4.34440811
471 3 73.0776780994342 47.52546156688344 7.4346395199999975
472 1 72.1689401335042 49.186885246313594 5.889523815
473 2 75.95534832510812 49.09944189476547 4.34440811
474 3 75.95534832510812 49.09944189476547 7.4346395199999975
475 1 75.04661035917815 50.76086557419563 5.889523815
476 2 78.83301855078207 50.673422222647496 4.34440811
477 3 78.83301855078207 50.673422222647496 7.4346395199999975
478 1 77.92428058485207 52.33484590207766 5.889523815
479 2 81.71068877645601 52.247402550529536 4.34440811
480 3 81.71068877645601 52.247402550529536 7.4346395199999975
481 1 80.80195081052604 53.90882622995969 5.889523815
482 2 84.58835900212996 53.82138287841157 4.34440811
483 3 84.58835900212996 53.82138287841157 7.4346395199999975
484 1 83.67962103619998 55.48280655784175 5.889523815
485 2 87.4660292278039 55.39536320629361 4.34440811
486 3 87.4660292278039 55.39536320629361 7.4346395199999975
487 1 86.55729126187391 57.05678688572377 5.889523815
488 2 90.34369945347785 56.969343534175636 4.34440811
489 3 90.34369945347785 56.969343534175636 7.4346395199999975
490 1 89.43496148754785 58.63076721360581 5.889523815
491 2 93.22136967915179 58.543323862057676 4.34440811
492 3 93.22136967915179 58.543323862057676 7.4346395199999975
493 1 92.3126317132218 60.20474754148783 5.889523815
494 2 96.09903990482574 60.11730418993971 4.34440811
495 3 96.09903990482574 60.11730418993971 7.4346395199999975
496 1 5.906796779118281 9.706212021939216 5.889523815
497 2 9.693204970722212 9.61876867039109 4.34440811
498 3 9.693204970722212 9.61876867039109 7.4346395199999975
499 1 8.784467004792226 11.280192349821252 5.889523815
500 2 12.570875196396159 11.192748998273128 4.34440811
501 3 12.570875196396159 11.192748998273128 7.4346395199999975
502 1 11.66213723046617 12.85417267770329 5.889523815
503 2 15.448545422070099 12.76672932615516 4.34440811
504 3 15.448545422070099 12.76672932615516 7.4346395199999975
505 1 14.539807456140114 14.42815300558532 5.889523815
506 2 18.326215647744046 14.340709654037196 4.34440811
507 3 18.326215647744046 14.340709654037196 7.4346395199999975
508 1 17.41747768181406 16.002133333467363 5.889523815
509 2 21.20388587341799 15.91468998191923 4.34440811
510 3 21.20388587341799 15.91468998191923 7.4346395199999975
511 1 20.295147907488 17.576113661349396 5.889523815
512 2 24.081556099091937 17.48867030980127 4.34440811
513 3 24.081556099091937 17.48867030980127 7.4346395199999975
514 1 23.172818133161947 19.15009398923143 5.889523815
515 2 26.95922632476588 19.0626506376833 4.34440811
516 3 26.95922632476588 19.0626506376833 7.4346395199999975
517 1 26.050488358835885 20.72407431711346 5.889523815
518 2 29.836896550439825 20.63663096556534 4.34440811
519 3 29.836896550439825 20.63663096556534 7.4346395199999975
520 1 28.928158584509834 22.2980546449955 5.889523815
521 2 32.71456677611377 22.210611293447375 4.34440811
522 3 32.71456677611377 22.210611293447375 7.4346395199999975
523 1 31.805828810183776 23.872034972877533 5.889523815
524 2 35.592237001787716 23.784591621329415 4.34440811
525 3 35.592237001787716 23.784591621329415 7.4346395199999975
526 1 34.68349903585773 25.446015300759566 5.889523815
527 2 38.469907227461654 25.358571949211438 4.34440811
528 3 38.469907227461654 25.358571949211438 7.4346395199999975
529 1 37.56116926153167 27.0199956286416 5.889523815